# FCC structure - OPTIMIZED (smaller supercell)
# Composition: {'Al': 0.25, 'Co': 0.25, 'Cr': 0.5}
# Al-Cr-Co System (Group 1) - Assignment 2 - MM309

864 atoms
3 atom types

0.0 20.04600000 xlo xhi
0.0 20.04600000 ylo yhi
0.0 20.04600000 zlo zhi

Masses

1 26.9815  # Al
2 58.9332  # Co
3 51.9961  # Cr

Atoms # atomic

1 3 0.00000000 0.00000000 0.00000000
2 3 1.67050000 1.67050000 0.00000000
3 1 1.67050000 0.00000000 1.67050000
4 3 0.00000000 1.67050000 1.67050000
5 2 0.00000000 0.00000000 3.34100000
6 2 1.67050000 1.67050000 3.34100000
7 2 1.67050000 0.00000000 5.01150000
8 1 0.00000000 1.67050000 5.01150000
9 2 0.00000000 0.00000000 6.68200000
10 2 1.67050000 1.67050000 6.68200000
11 1 1.67050000 0.00000000 8.35250000
12 3 0.00000000 1.67050000 8.35250000
13 3 0.00000000 0.00000000 10.02300000
14 3 1.67050000 1.67050000 10.02300000
15 2 1.67050000 0.00000000 11.69350000
16 2 0.00000000 1.67050000 11.69350000
17 1 0.00000000 0.00000000 13.36400000
18 3 1.67050000 1.67050000 13.36400000
19 3 1.67050000 0.00000000 15.03450000
20 1 0.00000000 1.67050000 15.03450000
21 3 0.00000000 0.00000000 16.70500000
22 1 1.67050000 1.67050000 16.70500000
23 3 1.67050000 0.00000000 18.37550000
24 2 0.00000000 1.67050000 18.37550000
25 3 0.00000000 3.34100000 0.00000000
26 1 1.67050000 5.01150000 0.00000000
27 1 1.67050000 3.34100000 1.67050000
28 3 0.00000000 5.01150000 1.67050000
29 1 0.00000000 3.34100000 3.34100000
30 3 1.67050000 5.01150000 3.34100000
31 1 1.67050000 3.34100000 5.01150000
32 3 0.00000000 5.01150000 5.01150000
33 2 0.00000000 3.34100000 6.68200000
34 3 1.67050000 5.01150000 6.68200000
35 3 1.67050000 3.34100000 8.35250000
36 3 0.00000000 5.01150000 8.35250000
37 3 0.00000000 3.34100000 10.02300000
38 3 1.67050000 5.01150000 10.02300000
39 3 1.67050000 3.34100000 11.69350000
40 1 0.00000000 5.01150000 11.69350000
41 3 0.00000000 3.34100000 13.36400000
42 1 1.67050000 5.01150000 13.36400000
43 1 1.67050000 3.34100000 15.03450000
44 2 0.00000000 5.01150000 15.03450000
45 3 0.00000000 3.34100000 16.70500000
46 1 1.67050000 5.01150000 16.70500000
47 3 1.67050000 3.34100000 18.37550000
48 3 0.00000000 5.01150000 18.37550000
49 3 0.00000000 6.68200000 0.00000000
50 3 1.67050000 8.35250000 0.00000000
51 1 1.67050000 6.68200000 1.67050000
52 3 0.00000000 8.35250000 1.67050000
53 3 0.00000000 6.68200000 3.34100000
54 3 1.67050000 8.35250000 3.34100000
55 2 1.67050000 6.68200000 5.01150000
56 3 0.00000000 8.35250000 5.01150000
57 3 0.00000000 6.68200000 6.68200000
58 3 1.67050000 8.35250000 6.68200000
59 2 1.67050000 6.68200000 8.35250000
60 3 0.00000000 8.35250000 8.35250000
61 3 0.00000000 6.68200000 10.02300000
62 3 1.67050000 8.35250000 10.02300000
63 3 1.67050000 6.68200000 11.69350000
64 3 0.00000000 8.35250000 11.69350000
65 3 0.00000000 6.68200000 13.36400000
66 1 1.67050000 8.35250000 13.36400000
67 2 1.67050000 6.68200000 15.03450000
68 3 0.00000000 8.35250000 15.03450000
69 2 0.00000000 6.68200000 16.70500000
70 1 1.67050000 8.35250000 16.70500000
71 3 1.67050000 6.68200000 18.37550000
72 3 0.00000000 8.35250000 18.37550000
73 3 0.00000000 10.02300000 0.00000000
74 1 1.67050000 11.69350000 0.00000000
75 1 1.67050000 10.02300000 1.67050000
76 3 0.00000000 11.69350000 1.67050000
77 2 0.00000000 10.02300000 3.34100000
78 3 1.67050000 11.69350000 3.34100000
79 2 1.67050000 10.02300000 5.01150000
80 3 0.00000000 11.69350000 5.01150000
81 3 0.00000000 10.02300000 6.68200000
82 2 1.67050000 11.69350000 6.68200000
83 3 1.67050000 10.02300000 8.35250000
84 2 0.00000000 11.69350000 8.35250000
85 2 0.00000000 10.02300000 10.02300000
86 3 1.67050000 11.69350000 10.02300000
87 3 1.67050000 10.02300000 11.69350000
88 3 0.00000000 11.69350000 11.69350000
89 3 0.00000000 10.02300000 13.36400000
90 2 1.67050000 11.69350000 13.36400000
91 2 1.67050000 10.02300000 15.03450000
92 1 0.00000000 11.69350000 15.03450000
93 2 0.00000000 10.02300000 16.70500000
94 1 1.67050000 11.69350000 16.70500000
95 3 1.67050000 10.02300000 18.37550000
96 2 0.00000000 11.69350000 18.37550000
97 3 0.00000000 13.36400000 0.00000000
98 1 1.67050000 15.03450000 0.00000000
99 2 1.67050000 13.36400000 1.67050000
100 3 0.00000000 15.03450000 1.67050000
101 2 0.00000000 13.36400000 3.34100000
102 3 1.67050000 15.03450000 3.34100000
103 3 1.67050000 13.36400000 5.01150000
104 3 0.00000000 15.03450000 5.01150000
105 1 0.00000000 13.36400000 6.68200000
106 1 1.67050000 15.03450000 6.68200000
107 3 1.67050000 13.36400000 8.35250000
108 1 0.00000000 15.03450000 8.35250000
109 3 0.00000000 13.36400000 10.02300000
110 2 1.67050000 15.03450000 10.02300000
111 1 1.67050000 13.36400000 11.69350000
112 3 0.00000000 15.03450000 11.69350000
113 1 0.00000000 13.36400000 13.36400000
114 2 1.67050000 15.03450000 13.36400000
115 2 1.67050000 13.36400000 15.03450000
116 3 0.00000000 15.03450000 15.03450000
117 1 0.00000000 13.36400000 16.70500000
118 1 1.67050000 15.03450000 16.70500000
119 1 1.67050000 13.36400000 18.37550000
120 3 0.00000000 15.03450000 18.37550000
121 2 0.00000000 16.70500000 0.00000000
122 3 1.67050000 18.37550000 0.00000000
123 3 1.67050000 16.70500000 1.67050000
124 2 0.00000000 18.37550000 1.67050000
125 1 0.00000000 16.70500000 3.34100000
126 3 1.67050000 18.37550000 3.34100000
127 1 1.67050000 16.70500000 5.01150000
128 3 0.00000000 18.37550000 5.01150000
129 3 0.00000000 16.70500000 6.68200000
130 1 1.67050000 18.37550000 6.68200000
131 1 1.67050000 16.70500000 8.35250000
132 3 0.00000000 18.37550000 8.35250000
133 1 0.00000000 16.70500000 10.02300000
134 2 1.67050000 18.37550000 10.02300000
135 3 1.67050000 16.70500000 11.69350000
136 2 0.00000000 18.37550000 11.69350000
137 2 0.00000000 16.70500000 13.36400000
138 3 1.67050000 18.37550000 13.36400000
139 3 1.67050000 16.70500000 15.03450000
140 3 0.00000000 18.37550000 15.03450000
141 3 0.00000000 16.70500000 16.70500000
142 1 1.67050000 18.37550000 16.70500000
143 3 1.67050000 16.70500000 18.37550000
144 3 0.00000000 18.37550000 18.37550000
145 3 3.34100000 0.00000000 0.00000000
146 3 5.01150000 1.67050000 0.00000000
147 3 5.01150000 0.00000000 1.67050000
148 2 3.34100000 1.67050000 1.67050000
149 3 3.34100000 0.00000000 3.34100000
150 1 5.01150000 1.67050000 3.34100000
151 1 5.01150000 0.00000000 5.01150000
152 3 3.34100000 1.67050000 5.01150000
153 3 3.34100000 0.00000000 6.68200000
154 3 5.01150000 1.67050000 6.68200000
155 3 5.01150000 0.00000000 8.35250000
156 3 3.34100000 1.67050000 8.35250000
157 2 3.34100000 0.00000000 10.02300000
158 3 5.01150000 1.67050000 10.02300000
159 2 5.01150000 0.00000000 11.69350000
160 3 3.34100000 1.67050000 11.69350000
161 3 3.34100000 0.00000000 13.36400000
162 3 5.01150000 1.67050000 13.36400000
163 1 5.01150000 0.00000000 15.03450000
164 3 3.34100000 1.67050000 15.03450000
165 2 3.34100000 0.00000000 16.70500000
166 2 5.01150000 1.67050000 16.70500000
167 3 5.01150000 0.00000000 18.37550000
168 3 3.34100000 1.67050000 18.37550000
169 2 3.34100000 3.34100000 0.00000000
170 1 5.01150000 5.01150000 0.00000000
171 3 5.01150000 3.34100000 1.67050000
172 2 3.34100000 5.01150000 1.67050000
173 1 3.34100000 3.34100000 3.34100000
174 2 5.01150000 5.01150000 3.34100000
175 2 5.01150000 3.34100000 5.01150000
176 3 3.34100000 5.01150000 5.01150000
177 3 3.34100000 3.34100000 6.68200000
178 3 5.01150000 5.01150000 6.68200000
179 3 5.01150000 3.34100000 8.35250000
180 2 3.34100000 5.01150000 8.35250000
181 1 3.34100000 3.34100000 10.02300000
182 1 5.01150000 5.01150000 10.02300000
183 3 5.01150000 3.34100000 11.69350000
184 3 3.34100000 5.01150000 11.69350000
185 3 3.34100000 3.34100000 13.36400000
186 2 5.01150000 5.01150000 13.36400000
187 1 5.01150000 3.34100000 15.03450000
188 3 3.34100000 5.01150000 15.03450000
189 1 3.34100000 3.34100000 16.70500000
190 3 5.01150000 5.01150000 16.70500000
191 3 5.01150000 3.34100000 18.37550000
192 3 3.34100000 5.01150000 18.37550000
193 2 3.34100000 6.68200000 0.00000000
194 1 5.01150000 8.35250000 0.00000000
195 2 5.01150000 6.68200000 1.67050000
196 3 3.34100000 8.35250000 1.67050000
197 3 3.34100000 6.68200000 3.34100000
198 2 5.01150000 8.35250000 3.34100000
199 2 5.01150000 6.68200000 5.01150000
200 3 3.34100000 8.35250000 5.01150000
201 3 3.34100000 6.68200000 6.68200000
202 2 5.01150000 8.35250000 6.68200000
203 2 5.01150000 6.68200000 8.35250000
204 3 3.34100000 8.35250000 8.35250000
205 2 3.34100000 6.68200000 10.02300000
206 1 5.01150000 8.35250000 10.02300000
207 3 5.01150000 6.68200000 11.69350000
208 3 3.34100000 8.35250000 11.69350000
209 3 3.34100000 6.68200000 13.36400000
210 3 5.01150000 8.35250000 13.36400000
211 1 5.01150000 6.68200000 15.03450000
212 3 3.34100000 8.35250000 15.03450000
213 3 3.34100000 6.68200000 16.70500000
214 1 5.01150000 8.35250000 16.70500000
215 3 5.01150000 6.68200000 18.37550000
216 3 3.34100000 8.35250000 18.37550000
217 1 3.34100000 10.02300000 0.00000000
218 2 5.01150000 11.69350000 0.00000000
219 3 5.01150000 10.02300000 1.67050000
220 1 3.34100000 11.69350000 1.67050000
221 1 3.34100000 10.02300000 3.34100000
222 2 5.01150000 11.69350000 3.34100000
223 2 5.01150000 10.02300000 5.01150000
224 3 3.34100000 11.69350000 5.01150000
225 2 3.34100000 10.02300000 6.68200000
226 2 5.01150000 11.69350000 6.68200000
227 3 5.01150000 10.02300000 8.35250000
228 2 3.34100000 11.69350000 8.35250000
229 2 3.34100000 10.02300000 10.02300000
230 3 5.01150000 11.69350000 10.02300000
231 3 5.01150000 10.02300000 11.69350000
232 1 3.34100000 11.69350000 11.69350000
233 1 3.34100000 10.02300000 13.36400000
234 2 5.01150000 11.69350000 13.36400000
235 1 5.01150000 10.02300000 15.03450000
236 3 3.34100000 11.69350000 15.03450000
237 3 3.34100000 10.02300000 16.70500000
238 1 5.01150000 11.69350000 16.70500000
239 1 5.01150000 10.02300000 18.37550000
240 3 3.34100000 11.69350000 18.37550000
241 2 3.34100000 13.36400000 0.00000000
242 3 5.01150000 15.03450000 0.00000000
243 3 5.01150000 13.36400000 1.67050000
244 1 3.34100000 15.03450000 1.67050000
245 3 3.34100000 13.36400000 3.34100000
246 2 5.01150000 15.03450000 3.34100000
247 2 5.01150000 13.36400000 5.01150000
248 1 3.34100000 15.03450000 5.01150000
249 2 3.34100000 13.36400000 6.68200000
250 2 5.01150000 15.03450000 6.68200000
251 2 5.01150000 13.36400000 8.35250000
252 3 3.34100000 15.03450000 8.35250000
253 1 3.34100000 13.36400000 10.02300000
254 1 5.01150000 15.03450000 10.02300000
255 3 5.01150000 13.36400000 11.69350000
256 1 3.34100000 15.03450000 11.69350000
257 2 3.34100000 13.36400000 13.36400000
258 3 5.01150000 15.03450000 13.36400000
259 2 5.01150000 13.36400000 15.03450000
260 1 3.34100000 15.03450000 15.03450000
261 3 3.34100000 13.36400000 16.70500000
262 3 5.01150000 15.03450000 16.70500000
263 2 5.01150000 13.36400000 18.37550000
264 3 3.34100000 15.03450000 18.37550000
265 1 3.34100000 16.70500000 0.00000000
266 1 5.01150000 18.37550000 0.00000000
267 3 5.01150000 16.70500000 1.67050000
268 1 3.34100000 18.37550000 1.67050000
269 2 3.34100000 16.70500000 3.34100000
270 3 5.01150000 18.37550000 3.34100000
271 1 5.01150000 16.70500000 5.01150000
272 3 3.34100000 18.37550000 5.01150000
273 3 3.34100000 16.70500000 6.68200000
274 1 5.01150000 18.37550000 6.68200000
275 3 5.01150000 16.70500000 8.35250000
276 2 3.34100000 18.37550000 8.35250000
277 3 3.34100000 16.70500000 10.02300000
278 3 5.01150000 18.37550000 10.02300000
279 1 5.01150000 16.70500000 11.69350000
280 1 3.34100000 18.37550000 11.69350000
281 3 3.34100000 16.70500000 13.36400000
282 3 5.01150000 18.37550000 13.36400000
283 2 5.01150000 16.70500000 15.03450000
284 3 3.34100000 18.37550000 15.03450000
285 2 3.34100000 16.70500000 16.70500000
286 3 5.01150000 18.37550000 16.70500000
287 1 5.01150000 16.70500000 18.37550000
288 3 3.34100000 18.37550000 18.37550000
289 3 6.68200000 0.00000000 0.00000000
290 3 8.35250000 1.67050000 0.00000000
291 2 8.35250000 0.00000000 1.67050000
292 3 6.68200000 1.67050000 1.67050000
293 1 6.68200000 0.00000000 3.34100000
294 3 8.35250000 1.67050000 3.34100000
295 3 8.35250000 0.00000000 5.01150000
296 2 6.68200000 1.67050000 5.01150000
297 1 6.68200000 0.00000000 6.68200000
298 2 8.35250000 1.67050000 6.68200000
299 1 8.35250000 0.00000000 8.35250000
300 3 6.68200000 1.67050000 8.35250000
301 1 6.68200000 0.00000000 10.02300000
302 3 8.35250000 1.67050000 10.02300000
303 3 8.35250000 0.00000000 11.69350000
304 3 6.68200000 1.67050000 11.69350000
305 3 6.68200000 0.00000000 13.36400000
306 1 8.35250000 1.67050000 13.36400000
307 3 8.35250000 0.00000000 15.03450000
308 2 6.68200000 1.67050000 15.03450000
309 3 6.68200000 0.00000000 16.70500000
310 3 8.35250000 1.67050000 16.70500000
311 1 8.35250000 0.00000000 18.37550000
312 3 6.68200000 1.67050000 18.37550000
313 3 6.68200000 3.34100000 0.00000000
314 1 8.35250000 5.01150000 0.00000000
315 3 8.35250000 3.34100000 1.67050000
316 3 6.68200000 5.01150000 1.67050000
317 1 6.68200000 3.34100000 3.34100000
318 1 8.35250000 5.01150000 3.34100000
319 3 8.35250000 3.34100000 5.01150000
320 1 6.68200000 5.01150000 5.01150000
321 3 6.68200000 3.34100000 6.68200000
322 1 8.35250000 5.01150000 6.68200000
323 3 8.35250000 3.34100000 8.35250000
324 3 6.68200000 5.01150000 8.35250000
325 3 6.68200000 3.34100000 10.02300000
326 3 8.35250000 5.01150000 10.02300000
327 3 8.35250000 3.34100000 11.69350000
328 1 6.68200000 5.01150000 11.69350000
329 3 6.68200000 3.34100000 13.36400000
330 1 8.35250000 5.01150000 13.36400000
331 1 8.35250000 3.34100000 15.03450000
332 1 6.68200000 5.01150000 15.03450000
333 2 6.68200000 3.34100000 16.70500000
334 1 8.35250000 5.01150000 16.70500000
335 3 8.35250000 3.34100000 18.37550000
336 2 6.68200000 5.01150000 18.37550000
337 3 6.68200000 6.68200000 0.00000000
338 3 8.35250000 8.35250000 0.00000000
339 3 8.35250000 6.68200000 1.67050000
340 3 6.68200000 8.35250000 1.67050000
341 2 6.68200000 6.68200000 3.34100000
342 3 8.35250000 8.35250000 3.34100000
343 3 8.35250000 6.68200000 5.01150000
344 3 6.68200000 8.35250000 5.01150000
345 1 6.68200000 6.68200000 6.68200000
346 3 8.35250000 8.35250000 6.68200000
347 3 8.35250000 6.68200000 8.35250000
348 3 6.68200000 8.35250000 8.35250000
349 2 6.68200000 6.68200000 10.02300000
350 1 8.35250000 8.35250000 10.02300000
351 1 8.35250000 6.68200000 11.69350000
352 1 6.68200000 8.35250000 11.69350000
353 2 6.68200000 6.68200000 13.36400000
354 3 8.35250000 8.35250000 13.36400000
355 3 8.35250000 6.68200000 15.03450000
356 1 6.68200000 8.35250000 15.03450000
357 1 6.68200000 6.68200000 16.70500000
358 3 8.35250000 8.35250000 16.70500000
359 3 8.35250000 6.68200000 18.37550000
360 2 6.68200000 8.35250000 18.37550000
361 1 6.68200000 10.02300000 0.00000000
362 1 8.35250000 11.69350000 0.00000000
363 3 8.35250000 10.02300000 1.67050000
364 2 6.68200000 11.69350000 1.67050000
365 1 6.68200000 10.02300000 3.34100000
366 3 8.35250000 11.69350000 3.34100000
367 3 8.35250000 10.02300000 5.01150000
368 2 6.68200000 11.69350000 5.01150000
369 3 6.68200000 10.02300000 6.68200000
370 3 8.35250000 11.69350000 6.68200000
371 1 8.35250000 10.02300000 8.35250000
372 3 6.68200000 11.69350000 8.35250000
373 3 6.68200000 10.02300000 10.02300000
374 1 8.35250000 11.69350000 10.02300000
375 2 8.35250000 10.02300000 11.69350000
376 3 6.68200000 11.69350000 11.69350000
377 2 6.68200000 10.02300000 13.36400000
378 3 8.35250000 11.69350000 13.36400000
379 1 8.35250000 10.02300000 15.03450000
380 2 6.68200000 11.69350000 15.03450000
381 3 6.68200000 10.02300000 16.70500000
382 2 8.35250000 11.69350000 16.70500000
383 3 8.35250000 10.02300000 18.37550000
384 2 6.68200000 11.69350000 18.37550000
385 3 6.68200000 13.36400000 0.00000000
386 2 8.35250000 15.03450000 0.00000000
387 2 8.35250000 13.36400000 1.67050000
388 1 6.68200000 15.03450000 1.67050000
389 3 6.68200000 13.36400000 3.34100000
390 3 8.35250000 15.03450000 3.34100000
391 3 8.35250000 13.36400000 5.01150000
392 3 6.68200000 15.03450000 5.01150000
393 3 6.68200000 13.36400000 6.68200000
394 3 8.35250000 15.03450000 6.68200000
395 1 8.35250000 13.36400000 8.35250000
396 3 6.68200000 15.03450000 8.35250000
397 2 6.68200000 13.36400000 10.02300000
398 3 8.35250000 15.03450000 10.02300000
399 1 8.35250000 13.36400000 11.69350000
400 3 6.68200000 15.03450000 11.69350000
401 3 6.68200000 13.36400000 13.36400000
402 1 8.35250000 15.03450000 13.36400000
403 2 8.35250000 13.36400000 15.03450000
404 3 6.68200000 15.03450000 15.03450000
405 3 6.68200000 13.36400000 16.70500000
406 1 8.35250000 15.03450000 16.70500000
407 3 8.35250000 13.36400000 18.37550000
408 2 6.68200000 15.03450000 18.37550000
409 3 6.68200000 16.70500000 0.00000000
410 2 8.35250000 18.37550000 0.00000000
411 3 8.35250000 16.70500000 1.67050000
412 3 6.68200000 18.37550000 1.67050000
413 3 6.68200000 16.70500000 3.34100000
414 3 8.35250000 18.37550000 3.34100000
415 3 8.35250000 16.70500000 5.01150000
416 1 6.68200000 18.37550000 5.01150000
417 1 6.68200000 16.70500000 6.68200000
418 3 8.35250000 18.37550000 6.68200000
419 3 8.35250000 16.70500000 8.35250000
420 1 6.68200000 18.37550000 8.35250000
421 3 6.68200000 16.70500000 10.02300000
422 1 8.35250000 18.37550000 10.02300000
423 1 8.35250000 16.70500000 11.69350000
424 3 6.68200000 18.37550000 11.69350000
425 3 6.68200000 16.70500000 13.36400000
426 3 8.35250000 18.37550000 13.36400000
427 1 8.35250000 16.70500000 15.03450000
428 3 6.68200000 18.37550000 15.03450000
429 3 6.68200000 16.70500000 16.70500000
430 1 8.35250000 18.37550000 16.70500000
431 3 8.35250000 16.70500000 18.37550000
432 2 6.68200000 18.37550000 18.37550000
433 3 10.02300000 0.00000000 0.00000000
434 2 11.69350000 1.67050000 0.00000000
435 3 11.69350000 0.00000000 1.67050000
436 1 10.02300000 1.67050000 1.67050000
437 2 10.02300000 0.00000000 3.34100000
438 1 11.69350000 1.67050000 3.34100000
439 1 11.69350000 0.00000000 5.01150000
440 2 10.02300000 1.67050000 5.01150000
441 3 10.02300000 0.00000000 6.68200000
442 2 11.69350000 1.67050000 6.68200000
443 3 11.69350000 0.00000000 8.35250000
444 3 10.02300000 1.67050000 8.35250000
445 1 10.02300000 0.00000000 10.02300000
446 3 11.69350000 1.67050000 10.02300000
447 3 11.69350000 0.00000000 11.69350000
448 1 10.02300000 1.67050000 11.69350000
449 3 10.02300000 0.00000000 13.36400000
450 1 11.69350000 1.67050000 13.36400000
451 3 11.69350000 0.00000000 15.03450000
452 2 10.02300000 1.67050000 15.03450000
453 3 10.02300000 0.00000000 16.70500000
454 3 11.69350000 1.67050000 16.70500000
455 2 11.69350000 0.00000000 18.37550000
456 2 10.02300000 1.67050000 18.37550000
457 3 10.02300000 3.34100000 0.00000000
458 3 11.69350000 5.01150000 0.00000000
459 3 11.69350000 3.34100000 1.67050000
460 1 10.02300000 5.01150000 1.67050000
461 3 10.02300000 3.34100000 3.34100000
462 3 11.69350000 5.01150000 3.34100000
463 1 11.69350000 3.34100000 5.01150000
464 3 10.02300000 5.01150000 5.01150000
465 1 10.02300000 3.34100000 6.68200000
466 2 11.69350000 5.01150000 6.68200000
467 1 11.69350000 3.34100000 8.35250000
468 3 10.02300000 5.01150000 8.35250000
469 1 10.02300000 3.34100000 10.02300000
470 3 11.69350000 5.01150000 10.02300000
471 1 11.69350000 3.34100000 11.69350000
472 3 10.02300000 5.01150000 11.69350000
473 3 10.02300000 3.34100000 13.36400000
474 3 11.69350000 5.01150000 13.36400000
475 3 11.69350000 3.34100000 15.03450000
476 1 10.02300000 5.01150000 15.03450000
477 2 10.02300000 3.34100000 16.70500000
478 3 11.69350000 5.01150000 16.70500000
479 3 11.69350000 3.34100000 18.37550000
480 3 10.02300000 5.01150000 18.37550000
481 2 10.02300000 6.68200000 0.00000000
482 1 11.69350000 8.35250000 0.00000000
483 3 11.69350000 6.68200000 1.67050000
484 2 10.02300000 8.35250000 1.67050000
485 2 10.02300000 6.68200000 3.34100000
486 3 11.69350000 8.35250000 3.34100000
487 2 11.69350000 6.68200000 5.01150000
488 3 10.02300000 8.35250000 5.01150000
489 1 10.02300000 6.68200000 6.68200000
490 2 11.69350000 8.35250000 6.68200000
491 3 11.69350000 6.68200000 8.35250000
492 1 10.02300000 8.35250000 8.35250000
493 1 10.02300000 6.68200000 10.02300000
494 3 11.69350000 8.35250000 10.02300000
495 2 11.69350000 6.68200000 11.69350000
496 2 10.02300000 8.35250000 11.69350000
497 3 10.02300000 6.68200000 13.36400000
498 3 11.69350000 8.35250000 13.36400000
499 1 11.69350000 6.68200000 15.03450000
500 2 10.02300000 8.35250000 15.03450000
501 3 10.02300000 6.68200000 16.70500000
502 3 11.69350000 8.35250000 16.70500000
503 2 11.69350000 6.68200000 18.37550000
504 3 10.02300000 8.35250000 18.37550000
505 3 10.02300000 10.02300000 0.00000000
506 2 11.69350000 11.69350000 0.00000000
507 1 11.69350000 10.02300000 1.67050000
508 3 10.02300000 11.69350000 1.67050000
509 3 10.02300000 10.02300000 3.34100000
510 2 11.69350000 11.69350000 3.34100000
511 3 11.69350000 10.02300000 5.01150000
512 2 10.02300000 11.69350000 5.01150000
513 1 10.02300000 10.02300000 6.68200000
514 2 11.69350000 11.69350000 6.68200000
515 3 11.69350000 10.02300000 8.35250000
516 2 10.02300000 11.69350000 8.35250000
517 2 10.02300000 10.02300000 10.02300000
518 2 11.69350000 11.69350000 10.02300000
519 3 11.69350000 10.02300000 11.69350000
520 2 10.02300000 11.69350000 11.69350000
521 1 10.02300000 10.02300000 13.36400000
522 3 11.69350000 11.69350000 13.36400000
523 1 11.69350000 10.02300000 15.03450000
524 1 10.02300000 11.69350000 15.03450000
525 2 10.02300000 10.02300000 16.70500000
526 2 11.69350000 11.69350000 16.70500000
527 3 11.69350000 10.02300000 18.37550000
528 1 10.02300000 11.69350000 18.37550000
529 1 10.02300000 13.36400000 0.00000000
530 2 11.69350000 15.03450000 0.00000000
531 3 11.69350000 13.36400000 1.67050000
532 3 10.02300000 15.03450000 1.67050000
533 3 10.02300000 13.36400000 3.34100000
534 3 11.69350000 15.03450000 3.34100000
535 3 11.69350000 13.36400000 5.01150000
536 2 10.02300000 15.03450000 5.01150000
537 2 10.02300000 13.36400000 6.68200000
538 2 11.69350000 15.03450000 6.68200000
539 2 11.69350000 13.36400000 8.35250000
540 1 10.02300000 15.03450000 8.35250000
541 1 10.02300000 13.36400000 10.02300000
542 3 11.69350000 15.03450000 10.02300000
543 3 11.69350000 13.36400000 11.69350000
544 2 10.02300000 15.03450000 11.69350000
545 3 10.02300000 13.36400000 13.36400000
546 2 11.69350000 15.03450000 13.36400000
547 3 11.69350000 13.36400000 15.03450000
548 1 10.02300000 15.03450000 15.03450000
549 2 10.02300000 13.36400000 16.70500000
550 2 11.69350000 15.03450000 16.70500000
551 2 11.69350000 13.36400000 18.37550000
552 1 10.02300000 15.03450000 18.37550000
553 1 10.02300000 16.70500000 0.00000000
554 1 11.69350000 18.37550000 0.00000000
555 3 11.69350000 16.70500000 1.67050000
556 3 10.02300000 18.37550000 1.67050000
557 3 10.02300000 16.70500000 3.34100000
558 3 11.69350000 18.37550000 3.34100000
559 3 11.69350000 16.70500000 5.01150000
560 2 10.02300000 18.37550000 5.01150000
561 2 10.02300000 16.70500000 6.68200000
562 3 11.69350000 18.37550000 6.68200000
563 1 11.69350000 16.70500000 8.35250000
564 2 10.02300000 18.37550000 8.35250000
565 1 10.02300000 16.70500000 10.02300000
566 3 11.69350000 18.37550000 10.02300000
567 3 11.69350000 16.70500000 11.69350000
568 3 10.02300000 18.37550000 11.69350000
569 2 10.02300000 16.70500000 13.36400000
570 1 11.69350000 18.37550000 13.36400000
571 2 11.69350000 16.70500000 15.03450000
572 2 10.02300000 18.37550000 15.03450000
573 1 10.02300000 16.70500000 16.70500000
574 3 11.69350000 18.37550000 16.70500000
575 3 11.69350000 16.70500000 18.37550000
576 1 10.02300000 18.37550000 18.37550000
577 3 13.36400000 0.00000000 0.00000000
578 1 15.03450000 1.67050000 0.00000000
579 3 15.03450000 0.00000000 1.67050000
580 3 13.36400000 1.67050000 1.67050000
581 3 13.36400000 0.00000000 3.34100000
582 1 15.03450000 1.67050000 3.34100000
583 3 15.03450000 0.00000000 5.01150000
584 2 13.36400000 1.67050000 5.01150000
585 2 13.36400000 0.00000000 6.68200000
586 2 15.03450000 1.67050000 6.68200000
587 2 15.03450000 0.00000000 8.35250000
588 3 13.36400000 1.67050000 8.35250000
589 3 13.36400000 0.00000000 10.02300000
590 2 15.03450000 1.67050000 10.02300000
591 1 15.03450000 0.00000000 11.69350000
592 3 13.36400000 1.67050000 11.69350000
593 3 13.36400000 0.00000000 13.36400000
594 3 15.03450000 1.67050000 13.36400000
595 2 15.03450000 0.00000000 15.03450000
596 2 13.36400000 1.67050000 15.03450000
597 1 13.36400000 0.00000000 16.70500000
598 3 15.03450000 1.67050000 16.70500000
599 2 15.03450000 0.00000000 18.37550000
600 2 13.36400000 1.67050000 18.37550000
601 3 13.36400000 3.34100000 0.00000000
602 3 15.03450000 5.01150000 0.00000000
603 3 15.03450000 3.34100000 1.67050000
604 1 13.36400000 5.01150000 1.67050000
605 1 13.36400000 3.34100000 3.34100000
606 1 15.03450000 5.01150000 3.34100000
607 1 15.03450000 3.34100000 5.01150000
608 2 13.36400000 5.01150000 5.01150000
609 2 13.36400000 3.34100000 6.68200000
610 3 15.03450000 5.01150000 6.68200000
611 3 15.03450000 3.34100000 8.35250000
612 3 13.36400000 5.01150000 8.35250000
613 2 13.36400000 3.34100000 10.02300000
614 3 15.03450000 5.01150000 10.02300000
615 2 15.03450000 3.34100000 11.69350000
616 1 13.36400000 5.01150000 11.69350000
617 1 13.36400000 3.34100000 13.36400000
618 1 15.03450000 5.01150000 13.36400000
619 3 15.03450000 3.34100000 15.03450000
620 2 13.36400000 5.01150000 15.03450000
621 1 13.36400000 3.34100000 16.70500000
622 3 15.03450000 5.01150000 16.70500000
623 2 15.03450000 3.34100000 18.37550000
624 3 13.36400000 5.01150000 18.37550000
625 2 13.36400000 6.68200000 0.00000000
626 3 15.03450000 8.35250000 0.00000000
627 2 15.03450000 6.68200000 1.67050000
628 3 13.36400000 8.35250000 1.67050000
629 3 13.36400000 6.68200000 3.34100000
630 1 15.03450000 8.35250000 3.34100000
631 3 15.03450000 6.68200000 5.01150000
632 2 13.36400000 8.35250000 5.01150000
633 3 13.36400000 6.68200000 6.68200000
634 3 15.03450000 8.35250000 6.68200000
635 3 15.03450000 6.68200000 8.35250000
636 3 13.36400000 8.35250000 8.35250000
637 3 13.36400000 6.68200000 10.02300000
638 3 15.03450000 8.35250000 10.02300000
639 3 15.03450000 6.68200000 11.69350000
640 2 13.36400000 8.35250000 11.69350000
641 3 13.36400000 6.68200000 13.36400000
642 1 15.03450000 8.35250000 13.36400000
643 2 15.03450000 6.68200000 15.03450000
644 1 13.36400000 8.35250000 15.03450000
645 2 13.36400000 6.68200000 16.70500000
646 3 15.03450000 8.35250000 16.70500000
647 1 15.03450000 6.68200000 18.37550000
648 3 13.36400000 8.35250000 18.37550000
649 1 13.36400000 10.02300000 0.00000000
650 3 15.03450000 11.69350000 0.00000000
651 1 15.03450000 10.02300000 1.67050000
652 1 13.36400000 11.69350000 1.67050000
653 2 13.36400000 10.02300000 3.34100000
654 3 15.03450000 11.69350000 3.34100000
655 3 15.03450000 10.02300000 5.01150000
656 3 13.36400000 11.69350000 5.01150000
657 2 13.36400000 10.02300000 6.68200000
658 3 15.03450000 11.69350000 6.68200000
659 3 15.03450000 10.02300000 8.35250000
660 2 13.36400000 11.69350000 8.35250000
661 3 13.36400000 10.02300000 10.02300000
662 2 15.03450000 11.69350000 10.02300000
663 3 15.03450000 10.02300000 11.69350000
664 1 13.36400000 11.69350000 11.69350000
665 2 13.36400000 10.02300000 13.36400000
666 3 15.03450000 11.69350000 13.36400000
667 2 15.03450000 10.02300000 15.03450000
668 3 13.36400000 11.69350000 15.03450000
669 3 13.36400000 10.02300000 16.70500000
670 3 15.03450000 11.69350000 16.70500000
671 3 15.03450000 10.02300000 18.37550000
672 2 13.36400000 11.69350000 18.37550000
673 1 13.36400000 13.36400000 0.00000000
674 3 15.03450000 15.03450000 0.00000000
675 3 15.03450000 13.36400000 1.67050000
676 3 13.36400000 15.03450000 1.67050000
677 3 13.36400000 13.36400000 3.34100000
678 2 15.03450000 15.03450000 3.34100000
679 3 15.03450000 13.36400000 5.01150000
680 3 13.36400000 15.03450000 5.01150000
681 1 13.36400000 13.36400000 6.68200000
682 3 15.03450000 15.03450000 6.68200000
683 3 15.03450000 13.36400000 8.35250000
684 3 13.36400000 15.03450000 8.35250000
685 3 13.36400000 13.36400000 10.02300000
686 3 15.03450000 15.03450000 10.02300000
687 3 15.03450000 13.36400000 11.69350000
688 2 13.36400000 15.03450000 11.69350000
689 3 13.36400000 13.36400000 13.36400000
690 1 15.03450000 15.03450000 13.36400000
691 3 15.03450000 13.36400000 15.03450000
692 2 13.36400000 15.03450000 15.03450000
693 3 13.36400000 13.36400000 16.70500000
694 3 15.03450000 15.03450000 16.70500000
695 2 15.03450000 13.36400000 18.37550000
696 1 13.36400000 15.03450000 18.37550000
697 2 13.36400000 16.70500000 0.00000000
698 1 15.03450000 18.37550000 0.00000000
699 3 15.03450000 16.70500000 1.67050000
700 1 13.36400000 18.37550000 1.67050000
701 3 13.36400000 16.70500000 3.34100000
702 2 15.03450000 18.37550000 3.34100000
703 3 15.03450000 16.70500000 5.01150000
704 1 13.36400000 18.37550000 5.01150000
705 1 13.36400000 16.70500000 6.68200000
706 1 15.03450000 18.37550000 6.68200000
707 3 15.03450000 16.70500000 8.35250000
708 2 13.36400000 18.37550000 8.35250000
709 3 13.36400000 16.70500000 10.02300000
710 2 15.03450000 18.37550000 10.02300000
711 3 15.03450000 16.70500000 11.69350000
712 3 13.36400000 18.37550000 11.69350000
713 3 13.36400000 16.70500000 13.36400000
714 1 15.03450000 18.37550000 13.36400000
715 2 15.03450000 16.70500000 15.03450000
716 2 13.36400000 18.37550000 15.03450000
717 2 13.36400000 16.70500000 16.70500000
718 1 15.03450000 18.37550000 16.70500000
719 1 15.03450000 16.70500000 18.37550000
720 1 13.36400000 18.37550000 18.37550000
721 3 16.70500000 0.00000000 0.00000000
722 3 18.37550000 1.67050000 0.00000000
723 3 18.37550000 0.00000000 1.67050000
724 3 16.70500000 1.67050000 1.67050000
725 1 16.70500000 0.00000000 3.34100000
726 2 18.37550000 1.67050000 3.34100000
727 3 18.37550000 0.00000000 5.01150000
728 1 16.70500000 1.67050000 5.01150000
729 2 16.70500000 0.00000000 6.68200000
730 3 18.37550000 1.67050000 6.68200000
731 2 18.37550000 0.00000000 8.35250000
732 3 16.70500000 1.67050000 8.35250000
733 3 16.70500000 0.00000000 10.02300000
734 3 18.37550000 1.67050000 10.02300000
735 3 18.37550000 0.00000000 11.69350000
736 1 16.70500000 1.67050000 11.69350000
737 3 16.70500000 0.00000000 13.36400000