# FCC structure - OPTIMIZED (smaller supercell)
# Composition: {'Al': 0.2, 'Co': 0.4, 'Cr': 0.4}
# Al-Cr-Co System (Group 1) - Assignment 2 - MM309

864 atoms
3 atom types

0.0 20.28960000 xlo xhi
0.0 20.28960000 ylo yhi
0.0 20.28960000 zlo zhi

Masses

1 26.9815  # Al
2 58.9332  # Co
3 51.9961  # Cr

Atoms # atomic

1 3 0.00000000 0.00000000 0.00000000
2 3 1.69080000 1.69080000 0.00000000
3 2 1.69080000 0.00000000 1.69080000
4 1 0.00000000 1.69080000 1.69080000
5 2 0.00000000 0.00000000 3.38160000
6 3 1.69080000 1.69080000 3.38160000
7 3 1.69080000 0.00000000 5.07240000
8 2 0.00000000 1.69080000 5.07240000
9 2 0.00000000 0.00000000 6.76320000
10 3 1.69080000 1.69080000 6.76320000
11 1 1.69080000 0.00000000 8.45400000
12 1 0.00000000 1.69080000 8.45400000
13 3 0.00000000 0.00000000 10.14480000
14 3 1.69080000 1.69080000 10.14480000
15 3 1.69080000 0.00000000 11.83560000
16 3 0.00000000 1.69080000 11.83560000
17 2 0.00000000 0.00000000 13.52640000
18 1 1.69080000 1.69080000 13.52640000
19 2 1.69080000 0.00000000 15.21720000
20 3 0.00000000 1.69080000 15.21720000
21 3 0.00000000 0.00000000 16.90800000
22 3 1.69080000 1.69080000 16.90800000
23 2 1.69080000 0.00000000 18.59880000
24 3 0.00000000 1.69080000 18.59880000
25 3 0.00000000 3.38160000 0.00000000
26 2 1.69080000 5.07240000 0.00000000
27 3 1.69080000 3.38160000 1.69080000
28 2 0.00000000 5.07240000 1.69080000
29 2 0.00000000 3.38160000 3.38160000
30 2 1.69080000 5.07240000 3.38160000
31 3 1.69080000 3.38160000 5.07240000
32 1 0.00000000 5.07240000 5.07240000
33 2 0.00000000 3.38160000 6.76320000
34 3 1.69080000 5.07240000 6.76320000
35 1 1.69080000 3.38160000 8.45400000
36 3 0.00000000 5.07240000 8.45400000
37 2 0.00000000 3.38160000 10.14480000
38 2 1.69080000 5.07240000 10.14480000
39 1 1.69080000 3.38160000 11.83560000
40 3 0.00000000 5.07240000 11.83560000
41 3 0.00000000 3.38160000 13.52640000
42 3 1.69080000 5.07240000 13.52640000
43 3 1.69080000 3.38160000 15.21720000
44 2 0.00000000 5.07240000 15.21720000
45 3 0.00000000 3.38160000 16.90800000
46 2 1.69080000 5.07240000 16.90800000
47 2 1.69080000 3.38160000 18.59880000
48 3 0.00000000 5.07240000 18.59880000
49 1 0.00000000 6.76320000 0.00000000
50 3 1.69080000 8.45400000 0.00000000
51 1 1.69080000 6.76320000 1.69080000
52 2 0.00000000 8.45400000 1.69080000
53 1 0.00000000 6.76320000 3.38160000
54 2 1.69080000 8.45400000 3.38160000
55 3 1.69080000 6.76320000 5.07240000
56 3 0.00000000 8.45400000 5.07240000
57 1 0.00000000 6.76320000 6.76320000
58 2 1.69080000 8.45400000 6.76320000
59 2 1.69080000 6.76320000 8.45400000
60 2 0.00000000 8.45400000 8.45400000
61 1 0.00000000 6.76320000 10.14480000
62 2 1.69080000 8.45400000 10.14480000
63 2 1.69080000 6.76320000 11.83560000
64 2 0.00000000 8.45400000 11.83560000
65 1 0.00000000 6.76320000 13.52640000
66 1 1.69080000 8.45400000 13.52640000
67 3 1.69080000 6.76320000 15.21720000
68 3 0.00000000 8.45400000 15.21720000
69 2 0.00000000 6.76320000 16.90800000
70 1 1.69080000 8.45400000 16.90800000
71 2 1.69080000 6.76320000 18.59880000
72 2 0.00000000 8.45400000 18.59880000
73 3 0.00000000 10.14480000 0.00000000
74 2 1.69080000 11.83560000 0.00000000
75 3 1.69080000 10.14480000 1.69080000
76 2 0.00000000 11.83560000 1.69080000
77 3 0.00000000 10.14480000 3.38160000
78 2 1.69080000 11.83560000 3.38160000
79 3 1.69080000 10.14480000 5.07240000
80 3 0.00000000 11.83560000 5.07240000
81 2 0.00000000 10.14480000 6.76320000
82 2 1.69080000 11.83560000 6.76320000
83 2 1.69080000 10.14480000 8.45400000
84 3 0.00000000 11.83560000 8.45400000
85 3 0.00000000 10.14480000 10.14480000
86 1 1.69080000 11.83560000 10.14480000
87 2 1.69080000 10.14480000 11.83560000
88 1 0.00000000 11.83560000 11.83560000
89 3 0.00000000 10.14480000 13.52640000
90 2 1.69080000 11.83560000 13.52640000
91 2 1.69080000 10.14480000 15.21720000
92 3 0.00000000 11.83560000 15.21720000
93 3 0.00000000 10.14480000 16.90800000
94 2 1.69080000 11.83560000 16.90800000
95 1 1.69080000 10.14480000 18.59880000
96 2 0.00000000 11.83560000 18.59880000
97 1 0.00000000 13.52640000 0.00000000
98 1 1.69080000 15.21720000 0.00000000
99 3 1.69080000 13.52640000 1.69080000
100 3 0.00000000 15.21720000 1.69080000
101 2 0.00000000 13.52640000 3.38160000
102 3 1.69080000 15.21720000 3.38160000
103 2 1.69080000 13.52640000 5.07240000
104 2 0.00000000 15.21720000 5.07240000
105 2 0.00000000 13.52640000 6.76320000
106 2 1.69080000 15.21720000 6.76320000
107 3 1.69080000 13.52640000 8.45400000
108 2 0.00000000 15.21720000 8.45400000
109 1 0.00000000 13.52640000 10.14480000
110 2 1.69080000 15.21720000 10.14480000
111 2 1.69080000 13.52640000 11.83560000
112 2 0.00000000 15.21720000 11.83560000
113 2 0.00000000 13.52640000 13.52640000
114 2 1.69080000 15.21720000 13.52640000
115 3 1.69080000 13.52640000 15.21720000
116 2 0.00000000 15.21720000 15.21720000
117 2 0.00000000 13.52640000 16.90800000
118 2 1.69080000 15.21720000 16.90800000
119 2 1.69080000 13.52640000 18.59880000
120 1 0.00000000 15.21720000 18.59880000
121 2 0.00000000 16.90800000 0.00000000
122 1 1.69080000 18.59880000 0.00000000
123 1 1.69080000 16.90800000 1.69080000
124 2 0.00000000 18.59880000 1.69080000
125 1 0.00000000 16.90800000 3.38160000
126 1 1.69080000 18.59880000 3.38160000
127 3 1.69080000 16.90800000 5.07240000
128 3 0.00000000 18.59880000 5.07240000
129 1 0.00000000 16.90800000 6.76320000
130 2 1.69080000 18.59880000 6.76320000
131 3 1.69080000 16.90800000 8.45400000
132 2 0.00000000 18.59880000 8.45400000
133 2 0.00000000 16.90800000 10.14480000
134 3 1.69080000 18.59880000 10.14480000
135 3 1.69080000 16.90800000 11.83560000
136 1 0.00000000 18.59880000 11.83560000
137 1 0.00000000 16.90800000 13.52640000
138 3 1.69080000 18.59880000 13.52640000
139 2 1.69080000 16.90800000 15.21720000
140 3 0.00000000 18.59880000 15.21720000
141 2 0.00000000 16.90800000 16.90800000
142 3 1.69080000 18.59880000 16.90800000
143 3 1.69080000 16.90800000 18.59880000
144 1 0.00000000 18.59880000 18.59880000
145 2 3.38160000 0.00000000 0.00000000
146 3 5.07240000 1.69080000 0.00000000
147 3 5.07240000 0.00000000 1.69080000
148 2 3.38160000 1.69080000 1.69080000
149 3 3.38160000 0.00000000 3.38160000
150 2 5.07240000 1.69080000 3.38160000
151 2 5.07240000 0.00000000 5.07240000
152 2 3.38160000 1.69080000 5.07240000
153 3 3.38160000 0.00000000 6.76320000
154 3 5.07240000 1.69080000 6.76320000
155 2 5.07240000 0.00000000 8.45400000
156 3 3.38160000 1.69080000 8.45400000
157 1 3.38160000 0.00000000 10.14480000
158 3 5.07240000 1.69080000 10.14480000
159 2 5.07240000 0.00000000 11.83560000
160 1 3.38160000 1.69080000 11.83560000
161 3 3.38160000 0.00000000 13.52640000
162 3 5.07240000 1.69080000 13.52640000
163 2 5.07240000 0.00000000 15.21720000
164 1 3.38160000 1.69080000 15.21720000
165 2 3.38160000 0.00000000 16.90800000
166 2 5.07240000 1.69080000 16.90800000
167 2 5.07240000 0.00000000 18.59880000
168 2 3.38160000 1.69080000 18.59880000
169 1 3.38160000 3.38160000 0.00000000
170 1 5.07240000 5.07240000 0.00000000
171 2 5.07240000 3.38160000 1.69080000
172 2 3.38160000 5.07240000 1.69080000
173 3 3.38160000 3.38160000 3.38160000
174 3 5.07240000 5.07240000 3.38160000
175 3 5.07240000 3.38160000 5.07240000
176 2 3.38160000 5.07240000 5.07240000
177 3 3.38160000 3.38160000 6.76320000
178 3 5.07240000 5.07240000 6.76320000
179 3 5.07240000 3.38160000 8.45400000
180 3 3.38160000 5.07240000 8.45400000
181 3 3.38160000 3.38160000 10.14480000
182 2 5.07240000 5.07240000 10.14480000
183 2 5.07240000 3.38160000 11.83560000
184 2 3.38160000 5.07240000 11.83560000
185 1 3.38160000 3.38160000 13.52640000
186 3 5.07240000 5.07240000 13.52640000
187 3 5.07240000 3.38160000 15.21720000
188 2 3.38160000 5.07240000 15.21720000
189 3 3.38160000 3.38160000 16.90800000
190 2 5.07240000 5.07240000 16.90800000
191 2 5.07240000 3.38160000 18.59880000
192 3 3.38160000 5.07240000 18.59880000
193 2 3.38160000 6.76320000 0.00000000
194 2 5.07240000 8.45400000 0.00000000
195 2 5.07240000 6.76320000 1.69080000
196 2 3.38160000 8.45400000 1.69080000
197 2 3.38160000 6.76320000 3.38160000
198 2 5.07240000 8.45400000 3.38160000
199 1 5.07240000 6.76320000 5.07240000
200 2 3.38160000 8.45400000 5.07240000
201 2 3.38160000 6.76320000 6.76320000
202 2 5.07240000 8.45400000 6.76320000
203 3 5.07240000 6.76320000 8.45400000
204 3 3.38160000 8.45400000 8.45400000
205 3 3.38160000 6.76320000 10.14480000
206 2 5.07240000 8.45400000 10.14480000
207 1 5.07240000 6.76320000 11.83560000
208 2 3.38160000 8.45400000 11.83560000
209 3 3.38160000 6.76320000 13.52640000
210 3 5.07240000 8.45400000 13.52640000
211 3 5.07240000 6.76320000 15.21720000
212 3 3.38160000 8.45400000 15.21720000
213 3 3.38160000 6.76320000 16.90800000
214 2 5.07240000 8.45400000 16.90800000
215 1 5.07240000 6.76320000 18.59880000
216 1 3.38160000 8.45400000 18.59880000
217 2 3.38160000 10.14480000 0.00000000
218 1 5.07240000 11.83560000 0.00000000
219 3 5.07240000 10.14480000 1.69080000
220 3 3.38160000 11.83560000 1.69080000
221 3 3.38160000 10.14480000 3.38160000
222 3 5.07240000 11.83560000 3.38160000
223 3 5.07240000 10.14480000 5.07240000
224 3 3.38160000 11.83560000 5.07240000
225 1 3.38160000 10.14480000 6.76320000
226 2 5.07240000 11.83560000 6.76320000
227 1 5.07240000 10.14480000 8.45400000
228 1 3.38160000 11.83560000 8.45400000
229 2 3.38160000 10.14480000 10.14480000
230 3 5.07240000 11.83560000 10.14480000
231 1 5.07240000 10.14480000 11.83560000
232 3 3.38160000 11.83560000 11.83560000
233 1 3.38160000 10.14480000 13.52640000
234 3 5.07240000 11.83560000 13.52640000
235 2 5.07240000 10.14480000 15.21720000
236 1 3.38160000 11.83560000 15.21720000
237 2 3.38160000 10.14480000 16.90800000
238 3 5.07240000 11.83560000 16.90800000
239 2 5.07240000 10.14480000 18.59880000
240 2 3.38160000 11.83560000 18.59880000
241 3 3.38160000 13.52640000 0.00000000
242 2 5.07240000 15.21720000 0.00000000
243 2 5.07240000 13.52640000 1.69080000
244 3 3.38160000 15.21720000 1.69080000
245 3 3.38160000 13.52640000 3.38160000
246 2 5.07240000 15.21720000 3.38160000
247 2 5.07240000 13.52640000 5.07240000
248 1 3.38160000 15.21720000 5.07240000
249 2 3.38160000 13.52640000 6.76320000
250 2 5.07240000 15.21720000 6.76320000
251 3 5.07240000 13.52640000 8.45400000
252 1 3.38160000 15.21720000 8.45400000
253 3 3.38160000 13.52640000 10.14480000
254 2 5.07240000 15.21720000 10.14480000
255 2 5.07240000 13.52640000 11.83560000
256 2 3.38160000 15.21720000 11.83560000
257 3 3.38160000 13.52640000 13.52640000
258 1 5.07240000 15.21720000 13.52640000
259 3 5.07240000 13.52640000 15.21720000
260 2 3.38160000 15.21720000 15.21720000
261 1 3.38160000 13.52640000 16.90800000
262 3 5.07240000 15.21720000 16.90800000
263 3 5.07240000 13.52640000 18.59880000
264 3 3.38160000 15.21720000 18.59880000
265 2 3.38160000 16.90800000 0.00000000
266 2 5.07240000 18.59880000 0.00000000
267 3 5.07240000 16.90800000 1.69080000
268 3 3.38160000 18.59880000 1.69080000
269 3 3.38160000 16.90800000 3.38160000
270 1 5.07240000 18.59880000 3.38160000
271 2 5.07240000 16.90800000 5.07240000
272 2 3.38160000 18.59880000 5.07240000
273 1 3.38160000 16.90800000 6.76320000
274 1 5.07240000 18.59880000 6.76320000
275 2 5.07240000 16.90800000 8.45400000
276 1 3.38160000 18.59880000 8.45400000
277 3 3.38160000 16.90800000 10.14480000
278 2 5.07240000 18.59880000 10.14480000
279 3 5.07240000 16.90800000 11.83560000
280 3 3.38160000 18.59880000 11.83560000
281 1 3.38160000 16.90800000 13.52640000
282 1 5.07240000 18.59880000 13.52640000
283 3 5.07240000 16.90800000 15.21720000
284 3 3.38160000 18.59880000 15.21720000
285 2 3.38160000 16.90800000 16.90800000
286 3 5.07240000 18.59880000 16.90800000
287 3 5.07240000 16.90800000 18.59880000
288 3 3.38160000 18.59880000 18.59880000
289 3 6.76320000 0.00000000 0.00000000
290 1 8.45400000 1.69080000 0.00000000
291 2 8.45400000 0.00000000 1.69080000
292 3 6.76320000 1.69080000 1.69080000
293 2 6.76320000 0.00000000 3.38160000
294 1 8.45400000 1.69080000 3.38160000
295 3 8.45400000 0.00000000 5.07240000
296 2 6.76320000 1.69080000 5.07240000
297 1 6.76320000 0.00000000 6.76320000
298 1 8.45400000 1.69080000 6.76320000
299 2 8.45400000 0.00000000 8.45400000
300 3 6.76320000 1.69080000 8.45400000
301 3 6.76320000 0.00000000 10.14480000
302 1 8.45400000 1.69080000 10.14480000
303 2 8.45400000 0.00000000 11.83560000
304 2 6.76320000 1.69080000 11.83560000
305 1 6.76320000 0.00000000 13.52640000
306 3 8.45400000 1.69080000 13.52640000
307 2 8.45400000 0.00000000 15.21720000
308 2 6.76320000 1.69080000 15.21720000
309 1 6.76320000 0.00000000 16.90800000
310 1 8.45400000 1.69080000 16.90800000
311 3 8.45400000 0.00000000 18.59880000
312 1 6.76320000 1.69080000 18.59880000
313 2 6.76320000 3.38160000 0.00000000
314 2 8.45400000 5.07240000 0.00000000
315 2 8.45400000 3.38160000 1.69080000
316 3 6.76320000 5.07240000 1.69080000
317 2 6.76320000 3.38160000 3.38160000
318 2 8.45400000 5.07240000 3.38160000
319 2 8.45400000 3.38160000 5.07240000
320 3 6.76320000 5.07240000 5.07240000
321 1 6.76320000 3.38160000 6.76320000
322 2 8.45400000 5.07240000 6.76320000
323 2 8.45400000 3.38160000 8.45400000
324 1 6.76320000 5.07240000 8.45400000
325 1 6.76320000 3.38160000 10.14480000
326 2 8.45400000 5.07240000 10.14480000
327 1 8.45400000 3.38160000 11.83560000
328 2 6.76320000 5.07240000 11.83560000
329 3 6.76320000 3.38160000 13.52640000
330 1 8.45400000 5.07240000 13.52640000
331 2 8.45400000 3.38160000 15.21720000
332 3 6.76320000 5.07240000 15.21720000
333 3 6.76320000 3.38160000 16.90800000
334 3 8.45400000 5.07240000 16.90800000
335 2 8.45400000 3.38160000 18.59880000
336 1 6.76320000 5.07240000 18.59880000
337 1 6.76320000 6.76320000 0.00000000
338 3 8.45400000 8.45400000 0.00000000
339 3 8.45400000 6.76320000 1.69080000
340 2 6.76320000 8.45400000 1.69080000
341 3 6.76320000 6.76320000 3.38160000
342 2 8.45400000 8.45400000 3.38160000
343 2 8.45400000 6.76320000 5.07240000
344 3 6.76320000 8.45400000 5.07240000
345 3 6.76320000 6.76320000 6.76320000
346 2 8.45400000 8.45400000 6.76320000
347 3 8.45400000 6.76320000 8.45400000
348 3 6.76320000 8.45400000 8.45400000
349 2 6.76320000 6.76320000 10.14480000
350 1 8.45400000 8.45400000 10.14480000
351 3 8.45400000 6.76320000 11.83560000
352 3 6.76320000 8.45400000 11.83560000
353 3 6.76320000 6.76320000 13.52640000
354 2 8.45400000 8.45400000 13.52640000
355 2 8.45400000 6.76320000 15.21720000
356 3 6.76320000 8.45400000 15.21720000
357 3 6.76320000 6.76320000 16.90800000
358 2 8.45400000 8.45400000 16.90800000
359 3 8.45400000 6.76320000 18.59880000
360 3 6.76320000 8.45400000 18.59880000
361 3 6.76320000 10.14480000 0.00000000
362 2 8.45400000 11.83560000 0.00000000
363 3 8.45400000 10.14480000 1.69080000
364 3 6.76320000 11.83560000 1.69080000
365 1 6.76320000 10.14480000 3.38160000
366 1 8.45400000 11.83560000 3.38160000
367 2 8.45400000 10.14480000 5.07240000
368 3 6.76320000 11.83560000 5.07240000
369 2 6.76320000 10.14480000 6.76320000
370 3 8.45400000 11.83560000 6.76320000
371 3 8.45400000 10.14480000 8.45400000
372 2 6.76320000 11.83560000 8.45400000
373 1 6.76320000 10.14480000 10.14480000
374 3 8.45400000 11.83560000 10.14480000
375 1 8.45400000 10.14480000 11.83560000
376 2 6.76320000 11.83560000 11.83560000
377 2 6.76320000 10.14480000 13.52640000
378 3 8.45400000 11.83560000 13.52640000
379 3 8.45400000 10.14480000 15.21720000
380 3 6.76320000 11.83560000 15.21720000
381 3 6.76320000 10.14480000 16.90800000
382 1 8.45400000 11.83560000 16.90800000
383 3 8.45400000 10.14480000 18.59880000
384 3 6.76320000 11.83560000 18.59880000
385 1 6.76320000 13.52640000 0.00000000
386 3 8.45400000 15.21720000 0.00000000
387 3 8.45400000 13.52640000 1.69080000
388 2 6.76320000 15.21720000 1.69080000
389 2 6.76320000 13.52640000 3.38160000
390 2 8.45400000 15.21720000 3.38160000
391 2 8.45400000 13.52640000 5.07240000
392 3 6.76320000 15.21720000 5.07240000
393 3 6.76320000 13.52640000 6.76320000
394 2 8.45400000 15.21720000 6.76320000
395 2 8.45400000 13.52640000 8.45400000
396 1 6.76320000 15.21720000 8.45400000
397 1 6.76320000 13.52640000 10.14480000
398 3 8.45400000 15.21720000 10.14480000
399 2 8.45400000 13.52640000 11.83560000
400 1 6.76320000 15.21720000 11.83560000
401 2 6.76320000 13.52640000 13.52640000
402 2 8.45400000 15.21720000 13.52640000
403 1 8.45400000 13.52640000 15.21720000
404 1 6.76320000 15.21720000 15.21720000
405 2 6.76320000 13.52640000 16.90800000
406 3 8.45400000 15.21720000 16.90800000
407 1 8.45400000 13.52640000 18.59880000
408 2 6.76320000 15.21720000 18.59880000
409 3 6.76320000 16.90800000 0.00000000
410 2 8.45400000 18.59880000 0.00000000
411 1 8.45400000 16.90800000 1.69080000
412 3 6.76320000 18.59880000 1.69080000
413 2 6.76320000 16.90800000 3.38160000
414 2 8.45400000 18.59880000 3.38160000
415 3 8.45400000 16.90800000 5.07240000
416 2 6.76320000 18.59880000 5.07240000
417 1 6.76320000 16.90800000 6.76320000
418 2 8.45400000 18.59880000 6.76320000
419 3 8.45400000 16.90800000 8.45400000
420 3 6.76320000 18.59880000 8.45400000
421 2 6.76320000 16.90800000 10.14480000
422 2 8.45400000 18.59880000 10.14480000
423 3 8.45400000 16.90800000 11.83560000
424 3 6.76320000 18.59880000 11.83560000
425 3 6.76320000 16.90800000 13.52640000
426 1 8.45400000 18.59880000 13.52640000
427 3 8.45400000 16.90800000 15.21720000
428 2 6.76320000 18.59880000 15.21720000
429 2 6.76320000 16.90800000 16.90800000
430 1 8.45400000 18.59880000 16.90800000
431 2 8.45400000 16.90800000 18.59880000
432 3 6.76320000 18.59880000 18.59880000
433 2 10.14480000 0.00000000 0.00000000
434 2 11.83560000 1.69080000 0.00000000
435 2 11.83560000 0.00000000 1.69080000
436 3 10.14480000 1.69080000 1.69080000
437 2 10.14480000 0.00000000 3.38160000
438 3 11.83560000 1.69080000 3.38160000
439 1 11.83560000 0.00000000 5.07240000
440 1 10.14480000 1.69080000 5.07240000
441 1 10.14480000 0.00000000 6.76320000
442 3 11.83560000 1.69080000 6.76320000
443 3 11.83560000 0.00000000 8.45400000
444 2 10.14480000 1.69080000 8.45400000
445 3 10.14480000 0.00000000 10.14480000
446 2 11.83560000 1.69080000 10.14480000
447 1 11.83560000 0.00000000 11.83560000
448 3 10.14480000 1.69080000 11.83560000
449 2 10.14480000 0.00000000 13.52640000
450 2 11.83560000 1.69080000 13.52640000
451 2 11.83560000 0.00000000 15.21720000
452 2 10.14480000 1.69080000 15.21720000
453 3 10.14480000 0.00000000 16.90800000
454 2 11.83560000 1.69080000 16.90800000
455 2 11.83560000 0.00000000 18.59880000
456 3 10.14480000 1.69080000 18.59880000
457 2 10.14480000 3.38160000 0.00000000
458 3 11.83560000 5.07240000 0.00000000
459 2 11.83560000 3.38160000 1.69080000
460 3 10.14480000 5.07240000 1.69080000
461 1 10.14480000 3.38160000 3.38160000
462 2 11.83560000 5.07240000 3.38160000
463 1 11.83560000 3.38160000 5.07240000
464 2 10.14480000 5.07240000 5.07240000
465 2 10.14480000 3.38160000 6.76320000
466 3 11.83560000 5.07240000 6.76320000
467 2 11.83560000 3.38160000 8.45400000
468 3 10.14480000 5.07240000 8.45400000
469 2 10.14480000 3.38160000 10.14480000
470 3 11.83560000 5.07240000 10.14480000
471 3 11.83560000 3.38160000 11.83560000
472 1 10.14480000 5.07240000 11.83560000
473 2 10.14480000 3.38160000 13.52640000
474 3 11.83560000 5.07240000 13.52640000
475 2 11.83560000 3.38160000 15.21720000
476 3 10.14480000 5.07240000 15.21720000
477 2 10.14480000 3.38160000 16.90800000
478 3 11.83560000 5.07240000 16.90800000
479 2 11.83560000 3.38160000 18.59880000
480 1 10.14480000 5.07240000 18.59880000
481 3 10.14480000 6.76320000 0.00000000
482 1 11.83560000 8.45400000 0.00000000
483 3 11.83560000 6.76320000 1.69080000
484 1 10.14480000 8.45400000 1.69080000
485 1 10.14480000 6.76320000 3.38160000
486 2 11.83560000 8.45400000 3.38160000
487 2 11.83560000 6.76320000 5.07240000
488 3 10.14480000 8.45400000 5.07240000
489 2 10.14480000 6.76320000 6.76320000
490 2 11.83560000 8.45400000 6.76320000
491 3 11.83560000 6.76320000 8.45400000
492 3 10.14480000 8.45400000 8.45400000
493 2 10.14480000 6.76320000 10.14480000
494 3 11.83560000 8.45400000 10.14480000
495 2 11.83560000 6.76320000 11.83560000
496 2 10.14480000 8.45400000 11.83560000
497 2 10.14480000 6.76320000 13.52640000
498 3 11.83560000 8.45400000 13.52640000
499 2 11.83560000 6.76320000 15.21720000
500 3 10.14480000 8.45400000 15.21720000
501 3 10.14480000 6.76320000 16.90800000
502 2 11.83560000 8.45400000 16.90800000
503 2 11.83560000 6.76320000 18.59880000
504 3 10.14480000 8.45400000 18.59880000
505 3 10.14480000 10.14480000 0.00000000
506 3 11.83560000 11.83560000 0.00000000
507 2 11.83560000 10.14480000 1.69080000
508 1 10.14480000 11.83560000 1.69080000
509 3 10.14480000 10.14480000 3.38160000
510 3 11.83560000 11.83560000 3.38160000
511 2 11.83560000 10.14480000 5.07240000
512 1 10.14480000 11.83560000 5.07240000
513 3 10.14480000 10.14480000 6.76320000
514 2 11.83560000 11.83560000 6.76320000
515 3 11.83560000 10.14480000 8.45400000
516 3 10.14480000 11.83560000 8.45400000
517 3 10.14480000 10.14480000 10.14480000
518 2 11.83560000 11.83560000 10.14480000
519 3 11.83560000 10.14480000 11.83560000
520 2 10.14480000 11.83560000 11.83560000
521 2 10.14480000 10.14480000 13.52640000
522 3 11.83560000 11.83560000 13.52640000
523 3 11.83560000 10.14480000 15.21720000
524 3 10.14480000 11.83560000 15.21720000
525 2 10.14480000 10.14480000 16.90800000
526 3 11.83560000 11.83560000 16.90800000
527 1 11.83560000 10.14480000 18.59880000
528 3 10.14480000 11.83560000 18.59880000
529 3 10.14480000 13.52640000 0.00000000
530 1 11.83560000 15.21720000 0.00000000
531 3 11.83560000 13.52640000 1.69080000
532 1 10.14480000 15.21720000 1.69080000
533 2 10.14480000 13.52640000 3.38160000
534 2 11.83560000 15.21720000 3.38160000
535 1 11.83560000 13.52640000 5.07240000
536 2 10.14480000 15.21720000 5.07240000
537 1 10.14480000 13.52640000 6.76320000
538 2 11.83560000 15.21720000 6.76320000
539 2 11.83560000 13.52640000 8.45400000
540 2 10.14480000 15.21720000 8.45400000
541 3 10.14480000 13.52640000 10.14480000
542 3 11.83560000 15.21720000 10.14480000
543 2 11.83560000 13.52640000 11.83560000
544 1 10.14480000 15.21720000 11.83560000
545 3 10.14480000 13.52640000 13.52640000
546 2 11.83560000 15.21720000 13.52640000
547 2 11.83560000 13.52640000 15.21720000
548 3 10.14480000 15.21720000 15.21720000
549 3 10.14480000 13.52640000 16.90800000
550 3 11.83560000 15.21720000 16.90800000
551 3 11.83560000 13.52640000 18.59880000
552 2 10.14480000 15.21720000 18.59880000
553 2 10.14480000 16.90800000 0.00000000
554 3 11.83560000 18.59880000 0.00000000
555 2 11.83560000 16.90800000 1.69080000
556 2 10.14480000 18.59880000 1.69080000
557 3 10.14480000 16.90800000 3.38160000
558 3 11.83560000 18.59880000 3.38160000
559 2 11.83560000 16.90800000 5.07240000
560 2 10.14480000 18.59880000 5.07240000
561 3 10.14480000 16.90800000 6.76320000
562 1 11.83560000 18.59880000 6.76320000
563 2 11.83560000 16.90800000 8.45400000
564 2 10.14480000 18.59880000 8.45400000
565 3 10.14480000 16.90800000 10.14480000
566 3 11.83560000 18.59880000 10.14480000
567 1 11.83560000 16.90800000 11.83560000
568 2 10.14480000 18.59880000 11.83560000
569 1 10.14480000 16.90800000 13.52640000
570 2 11.83560000 18.59880000 13.52640000
571 2 11.83560000 16.90800000 15.21720000
572 2 10.14480000 18.59880000 15.21720000
573 3 10.14480000 16.90800000 16.90800000
574 3 11.83560000 18.59880000 16.90800000
575 1 11.83560000 16.90800000 18.59880000
576 3 10.14480000 18.59880000 18.59880000
577 2 13.52640000 0.00000000 0.00000000
578 3 15.21720000 1.69080000 0.00000000
579 3 15.21720000 0.00000000 1.69080000
580 3 13.52640000 1.69080000 1.69080000
581 3 13.52640000 0.00000000 3.38160000
582 1 15.21720000 1.69080000 3.38160000
583 3 15.21720000 0.00000000 5.07240000
584 1 13.52640000 1.69080000 5.07240000
585 3 13.52640000 0.00000000 6.76320000
586 1 15.21720000 1.69080000 6.76320000
587 2 15.21720000 0.00000000 8.45400000
588 3 13.52640000 1.69080000 8.45400000
589 1 13.52640000 0.00000000 10.14480000
590 2 15.21720000 1.69080000 10.14480000
591 2 15.21720000 0.00000000 11.83560000
592 1 13.52640000 1.69080000 11.83560000
593 2 13.52640000 0.00000000 13.52640000
594 3 15.21720000 1.69080000 13.52640000
595 3 15.21720000 0.00000000 15.21720000
596 3 13.52640000 1.69080000 15.21720000
597 3 13.52640000 0.00000000 16.90800000
598 2 15.21720000 1.69080000 16.90800000
599 3 15.21720000 0.00000000 18.59880000
600 2 13.52640000 1.69080000 18.59880000
601 3 13.52640000 3.38160000 0.00000000
602 2 15.21720000 5.07240000 0.00000000
603 2 15.21720000 3.38160000 1.69080000
604 2 13.52640000 5.07240000 1.69080000
605 2 13.52640000 3.38160000 3.38160000
606 2 15.21720000 5.07240000 3.38160000
607 3 15.21720000 3.38160000 5.07240000
608 2 13.52640000 5.07240000 5.07240000
609 2 13.52640000 3.38160000 6.76320000
610 3 15.21720000 5.07240000 6.76320000
611 2 15.21720000 3.38160000 8.45400000
612 2 13.52640000 5.07240000 8.45400000
613 3 13.52640000 3.38160000 10.14480000
614 1 15.21720000 5.07240000 10.14480000
615 3 15.21720000 3.38160000 11.83560000
616 1 13.52640000 5.07240000 11.83560000
617 2 13.52640000 3.38160000 13.52640000
618 2 15.21720000 5.07240000 13.52640000
619 2 15.21720000 3.38160000 15.21720000
620 2 13.52640000 5.07240000 15.21720000
621 1 13.52640000 3.38160000 16.90800000
622 2 15.21720000 5.07240000 16.90800000
623 2 15.21720000 3.38160000 18.59880000
624 3 13.52640000 5.07240000 18.59880000
625 2 13.52640000 6.76320000 0.00000000
626 1 15.21720000 8.45400000 0.00000000
627 2 15.21720000 6.76320000 1.69080000
628 1 13.52640000 8.45400000 1.69080000
629 1 13.52640000 6.76320000 3.38160000
630 1 15.21720000 8.45400000 3.38160000
631 2 15.21720000 6.76320000 5.07240000
632 2 13.52640000 8.45400000 5.07240000
633 2 13.52640000 6.76320000 6.76320000
634 3 15.21720000 8.45400000 6.76320000
635 3 15.21720000 6.76320000 8.45400000
636 3 13.52640000 8.45400000 8.45400000
637 1 13.52640000 6.76320000 10.14480000
638 2 15.21720000 8.45400000 10.14480000
639 3 15.21720000 6.76320000 11.83560000
640 3 13.52640000 8.45400000 11.83560000
641 3 13.52640000 6.76320000 13.52640000
642 1 15.21720000 8.45400000 13.52640000
643 3 15.21720000 6.76320000 15.21720000
644 1 13.52640000 8.45400000 15.21720000
645 1 13.52640000 6.76320000 16.90800000
646 2 15.21720000 8.45400000 16.90800000
647 2 15.21720000 6.76320000 18.59880000
648 3 13.52640000 8.45400000 18.59880000
649 3 13.52640000 10.14480000 0.00000000
650 3 15.21720000 11.83560000 0.00000000
651 2 15.21720000 10.14480000 1.69080000
652 2 13.52640000 11.83560000 1.69080000
653 1 13.52640000 10.14480000 3.38160000
654 3 15.21720000 11.83560000 3.38160000
655 3 15.21720000 10.14480000 5.07240000
656 2 13.52640000 11.83560000 5.07240000
657 1 13.52640000 10.14480000 6.76320000
658 1 15.21720000 11.83560000 6.76320000
659 2 15.21720000 10.14480000 8.45400000
660 3 13.52640000 11.83560000 8.45400000
661 3 13.52640000 10.14480000 10.14480000
662 3 15.21720000 11.83560000 10.14480000
663 2 15.21720000 10.14480000 11.83560000
664 2 13.52640000 11.83560000 11.83560000
665 2 13.52640000 10.14480000 13.52640000
666 2 15.21720000 11.83560000 13.52640000
667 3 15.21720000 10.14480000 15.21720000
668 1 13.52640000 11.83560000 15.21720000
669 2 13.52640000 10.14480000 16.90800000
670 2 15.21720000 11.83560000 16.90800000
671 2 15.21720000 10.14480000 18.59880000
672 3 13.52640000 11.83560000 18.59880000
673 3 13.52640000 13.52640000 0.00000000
674 2 15.21720000 15.21720000 0.00000000
675 3 15.21720000 13.52640000 1.69080000
676 3 13.52640000 15.21720000 1.69080000
677 3 13.52640000 13.52640000 3.38160000
678 3 15.21720000 15.21720000 3.38160000
679 2 15.21720000 13.52640000 5.07240000
680 3 13.52640000 15.21720000 5.07240000
681 3 13.52640000 13.52640000 6.76320000
682 2 15.21720000 15.21720000 6.76320000
683 3 15.21720000 13.52640000 8.45400000
684 3 13.52640000 15.21720000 8.45400000
685 2 13.52640000 13.52640000 10.14480000
686 2 15.21720000 15.21720000 10.14480000
687 1 15.21720000 13.52640000 11.83560000
688 2 13.52640000 15.21720000 11.83560000
689 2 13.52640000 13.52640000 13.52640000
690 2 15.21720000 15.21720000 13.52640000
691 2 15.21720000 13.52640000 15.21720000
692 3 13.52640000 15.21720000 15.21720000
693 1 13.52640000 13.52640000 16.90800000
694 2 15.21720000 15.21720000 16.90800000
695 2 15.21720000 13.52640000 18.59880000
696 1 13.52640000 15.21720000 18.59880000
697 3 13.52640000 16.90800000 0.00000000
698 3 15.21720000 18.59880000 0.00000000
699 2 15.21720000 16.90800000 1.69080000
700 1 13.52640000 18.59880000 1.69080000
701 1 13.52640000 16.90800000 3.38160000
702 3 15.21720000 18.59880000 3.38160000
703 3 15.21720000 16.90800000 5.07240000
704 3 13.52640000 18.59880000 5.07240000
705 2 13.52640000 16.90800000 6.76320000
706 3 15.21720000 18.59880000 6.76320000
707 2 15.21720000 16.90800000 8.45400000
708 2 13.52640000 18.59880000 8.45400000
709 2 13.52640000 16.90800000 10.14480000
710 1 15.21720000 18.59880000 10.14480000
711 3 15.21720000 16.90800000 11.83560000
712 3 13.52640000 18.59880000 11.83560000
713 3 13.52640000 16.90800000 13.52640000
714 3 15.21720000 18.59880000 13.52640000
715 2 15.21720000 16.90800000 15.21720000
716 1 13.52640000 18.59880000 15.21720000
717 3 13.52640000 16.90800000 16.90800000
718 2 15.21720000 18.59880000 16.90800000
719 3 15.21720000 16.90800000 18.59880000
720 2 13.52640000 18.59880000 18.59880000
721 3 16.90800000 0.00000000 0.00000000
722 2 18.59880000 1.69080000 0.00000000
723 3 18.59880000 0.00000000 1.69080000
724 2 16.90800000 1.69080000 1.69080000
725 1 16.90800000 0.00000000 3.38160000
726 2 18.59880000 1.69080000 3.38160000
727 3 18.59880000 0.00000000 5.07240000
728 2 16.90800000 1.69080000 5.07240000
729 3 16.90800000 0.00000000 6.76320000
730 3 18.59880000 1.69080000 6.76320000
731 3 18.59880000 0.00000000 8.45400000
732 2 16.90800000 1.69080000 8.45400000
733 3 16.90800000 0.00000000 10.14480000
734 3 18.59880000 1.69080000 10.14480000
735 1 18.59880000 0.00000000 11.83560000
736 3 16.90800000 1.69080000 11.83560000
737 3 16.90800000 0.00000000 13.52640000