# HCP structure - OPTIMIZED (smaller supercell)
# Composition: {'Al': 1.0, 'Co': 0.0, 'Cr': 0.0}
# Al-Cr-Co System (Group 1) - Assignment 2 - MM309

432 atoms
3 atom types

0.0 17.18269478 xlo xhi
0.0 29.76130037 ylo yhi
0.0 28.05922308 zlo zhi

Masses

1 26.9815  # Al
2 58.9332  # Co
3 51.9961  # Cr

Atoms # atomic

1 1 0.00000000 0.00000000 0.00000000
2 1 0.00000000 4.96021673 0.00000000
3 1 0.00000000 9.92043346 0.00000000
4 1 0.00000000 14.88065019 0.00000000
5 1 0.00000000 19.84086692 0.00000000
6 1 0.00000000 24.80108365 0.00000000
7 1 2.86378246 0.00000000 0.00000000
8 1 2.86378246 4.96021673 0.00000000
9 1 2.86378246 9.92043346 0.00000000
10 1 2.86378246 14.88065019 0.00000000
11 1 2.86378246 19.84086692 0.00000000
12 1 2.86378246 24.80108365 0.00000000
13 1 5.72756493 0.00000000 0.00000000
14 1 5.72756493 4.96021673 0.00000000
15 1 5.72756493 9.92043346 0.00000000
16 1 5.72756493 14.88065019 0.00000000
17 1 5.72756493 19.84086692 0.00000000
18 1 5.72756493 24.80108365 0.00000000
19 1 8.59134739 0.00000000 0.00000000
20 1 8.59134739 4.96021673 0.00000000
21 1 8.59134739 9.92043346 0.00000000
22 1 8.59134739 14.88065019 0.00000000
23 1 8.59134739 19.84086692 0.00000000
24 1 8.59134739 24.80108365 0.00000000
25 1 11.45512986 0.00000000 0.00000000
26 1 11.45512986 4.96021673 0.00000000
27 1 11.45512986 9.92043346 0.00000000
28 1 11.45512986 14.88065019 0.00000000
29 1 11.45512986 19.84086692 0.00000000
30 1 11.45512986 24.80108365 0.00000000
31 1 14.31891232 0.00000000 0.00000000
32 1 14.31891232 4.96021673 0.00000000
33 1 14.31891232 9.92043346 0.00000000
34 1 14.31891232 14.88065019 0.00000000
35 1 14.31891232 19.84086692 0.00000000
36 1 14.31891232 24.80108365 0.00000000
37 1 1.43189123 2.48010836 2.33826859
38 1 1.43189123 7.44032509 2.33826859
39 1 1.43189123 12.40054182 2.33826859
40 1 1.43189123 17.36075855 2.33826859
41 1 1.43189123 22.32097528 2.33826859
42 1 1.43189123 27.28119201 2.33826859
43 1 4.29567370 2.48010836 2.33826859
44 1 4.29567370 7.44032509 2.33826859
45 1 4.29567370 12.40054182 2.33826859
46 1 4.29567370 17.36075855 2.33826859
47 1 4.29567370 22.32097528 2.33826859
48 1 4.29567370 27.28119201 2.33826859
49 1 7.15945616 2.48010836 2.33826859
50 1 7.15945616 7.44032509 2.33826859
51 1 7.15945616 12.40054182 2.33826859
52 1 7.15945616 17.36075855 2.33826859
53 1 7.15945616 22.32097528 2.33826859
54 1 7.15945616 27.28119201 2.33826859
55 1 10.02323862 2.48010836 2.33826859
56 1 10.02323862 7.44032509 2.33826859
57 1 10.02323862 12.40054182 2.33826859
58 1 10.02323862 17.36075855 2.33826859
59 1 10.02323862 22.32097528 2.33826859
60 1 10.02323862 27.28119201 2.33826859
61 1 12.88702109 2.48010836 2.33826859
62 1 12.88702109 7.44032509 2.33826859
63 1 12.88702109 12.40054182 2.33826859
64 1 12.88702109 17.36075855 2.33826859
65 1 12.88702109 22.32097528 2.33826859
66 1 12.88702109 27.28119201 2.33826859
67 1 15.75080355 2.48010836 2.33826859
68 1 15.75080355 7.44032509 2.33826859
69 1 15.75080355 12.40054182 2.33826859
70 1 15.75080355 17.36075855 2.33826859
71 1 15.75080355 22.32097528 2.33826859
72 1 15.75080355 27.28119201 2.33826859
73 1 0.00000000 0.00000000 4.67653718
74 1 0.00000000 4.96021673 4.67653718
75 1 0.00000000 9.92043346 4.67653718
76 1 0.00000000 14.88065019 4.67653718
77 1 0.00000000 19.84086692 4.67653718
78 1 0.00000000 24.80108365 4.67653718
79 1 2.86378246 0.00000000 4.67653718
80 1 2.86378246 4.96021673 4.67653718
81 1 2.86378246 9.92043346 4.67653718
82 1 2.86378246 14.88065019 4.67653718
83 1 2.86378246 19.84086692 4.67653718
84 1 2.86378246 24.80108365 4.67653718
85 1 5.72756493 0.00000000 4.67653718
86 1 5.72756493 4.96021673 4.67653718
87 1 5.72756493 9.92043346 4.67653718
88 1 5.72756493 14.88065019 4.67653718
89 1 5.72756493 19.84086692 4.67653718
90 1 5.72756493 24.80108365 4.67653718
91 1 8.59134739 0.00000000 4.67653718
92 1 8.59134739 4.96021673 4.67653718
93 1 8.59134739 9.92043346 4.67653718
94 1 8.59134739 14.88065019 4.67653718
95 1 8.59134739 19.84086692 4.67653718
96 1 8.59134739 24.80108365 4.67653718
97 1 11.45512986 0.00000000 4.67653718
98 1 11.45512986 4.96021673 4.67653718
99 1 11.45512986 9.92043346 4.67653718
100 1 11.45512986 14.88065019 4.67653718
101 1 11.45512986 19.84086692 4.67653718
102 1 11.45512986 24.80108365 4.67653718
103 1 14.31891232 0.00000000 4.67653718
104 1 14.31891232 4.96021673 4.67653718
105 1 14.31891232 9.92043346 4.67653718
106 1 14.31891232 14.88065019 4.67653718
107 1 14.31891232 19.84086692 4.67653718
108 1 14.31891232 24.80108365 4.67653718
109 1 1.43189123 2.48010836 7.01480577
110 1 1.43189123 7.44032509 7.01480577
111 1 1.43189123 12.40054182 7.01480577
112 1 1.43189123 17.36075855 7.01480577
113 1 1.43189123 22.32097528 7.01480577
114 1 1.43189123 27.28119201 7.01480577
115 1 4.29567370 2.48010836 7.01480577
116 1 4.29567370 7.44032509 7.01480577
117 1 4.29567370 12.40054182 7.01480577
118 1 4.29567370 17.36075855 7.01480577
119 1 4.29567370 22.32097528 7.01480577
120 1 4.29567370 27.28119201 7.01480577
121 1 7.15945616 2.48010836 7.01480577
122 1 7.15945616 7.44032509 7.01480577
123 1 7.15945616 12.40054182 7.01480577
124 1 7.15945616 17.36075855 7.01480577
125 1 7.15945616 22.32097528 7.01480577
126 1 7.15945616 27.28119201 7.01480577
127 1 10.02323862 2.48010836 7.01480577
128 1 10.02323862 7.44032509 7.01480577
129 1 10.02323862 12.40054182 7.01480577
130 1 10.02323862 17.36075855 7.01480577
131 1 10.02323862 22.32097528 7.01480577
132 1 10.02323862 27.28119201 7.01480577
133 1 12.88702109 2.48010836 7.01480577
134 1 12.88702109 7.44032509 7.01480577
135 1 12.88702109 12.40054182 7.01480577
136 1 12.88702109 17.36075855 7.01480577
137 1 12.88702109 22.32097528 7.01480577
138 1 12.88702109 27.28119201 7.01480577
139 1 15.75080355 2.48010836 7.01480577
140 1 15.75080355 7.44032509 7.01480577
141 1 15.75080355 12.40054182 7.01480577
142 1 15.75080355 17.36075855 7.01480577
143 1 15.75080355 22.32097528 7.01480577
144 1 15.75080355 27.28119201 7.01480577
145 1 0.00000000 0.00000000 9.35307436
146 1 0.00000000 4.96021673 9.35307436
147 1 0.00000000 9.92043346 9.35307436
148 1 0.00000000 14.88065019 9.35307436
149 1 0.00000000 19.84086692 9.35307436
150 1 0.00000000 24.80108365 9.35307436
151 1 2.86378246 0.00000000 9.35307436
152 1 2.86378246 4.96021673 9.35307436
153 1 2.86378246 9.92043346 9.35307436
154 1 2.86378246 14.88065019 9.35307436
155 1 2.86378246 19.84086692 9.35307436
156 1 2.86378246 24.80108365 9.35307436
157 1 5.72756493 0.00000000 9.35307436
158 1 5.72756493 4.96021673 9.35307436
159 1 5.72756493 9.92043346 9.35307436
160 1 5.72756493 14.88065019 9.35307436
161 1 5.72756493 19.84086692 9.35307436
162 1 5.72756493 24.80108365 9.35307436
163 1 8.59134739 0.00000000 9.35307436
164 1 8.59134739 4.96021673 9.35307436
165 1 8.59134739 9.92043346 9.35307436
166 1 8.59134739 14.88065019 9.35307436
167 1 8.59134739 19.84086692 9.35307436
168 1 8.59134739 24.80108365 9.35307436
169 1 11.45512986 0.00000000 9.35307436
170 1 11.45512986 4.96021673 9.35307436
171 1 11.45512986 9.92043346 9.35307436
172 1 11.45512986 14.88065019 9.35307436
173 1 11.45512986 19.84086692 9.35307436
174 1 11.45512986 24.80108365 9.35307436
175 1 14.31891232 0.00000000 9.35307436
176 1 14.31891232 4.96021673 9.35307436
177 1 14.31891232 9.92043346 9.35307436
178 1 14.31891232 14.88065019 9.35307436
179 1 14.31891232 19.84086692 9.35307436
180 1 14.31891232 24.80108365 9.35307436
181 1 1.43189123 2.48010836 11.69134295
182 1 1.43189123 7.44032509 11.69134295
183 1 1.43189123 12.40054182 11.69134295
184 1 1.43189123 17.36075855 11.69134295
185 1 1.43189123 22.32097528 11.69134295
186 1 1.43189123 27.28119201 11.69134295
187 1 4.29567370 2.48010836 11.69134295
188 1 4.29567370 7.44032509 11.69134295
189 1 4.29567370 12.40054182 11.69134295
190 1 4.29567370 17.36075855 11.69134295
191 1 4.29567370 22.32097528 11.69134295
192 1 4.29567370 27.28119201 11.69134295
193 1 7.15945616 2.48010836 11.69134295
194 1 7.15945616 7.44032509 11.69134295
195 1 7.15945616 12.40054182 11.69134295
196 1 7.15945616 17.36075855 11.69134295
197 1 7.15945616 22.32097528 11.69134295
198 1 7.15945616 27.28119201 11.69134295
199 1 10.02323862 2.48010836 11.69134295
200 1 10.02323862 7.44032509 11.69134295
201 1 10.02323862 12.40054182 11.69134295
202 1 10.02323862 17.36075855 11.69134295
203 1 10.02323862 22.32097528 11.69134295
204 1 10.02323862 27.28119201 11.69134295
205 1 12.88702109 2.48010836 11.69134295
206 1 12.88702109 7.44032509 11.69134295
207 1 12.88702109 12.40054182 11.69134295
208 1 12.88702109 17.36075855 11.69134295
209 1 12.88702109 22.32097528 11.69134295
210 1 12.88702109 27.28119201 11.69134295
211 1 15.75080355 2.48010836 11.69134295
212 1 15.75080355 7.44032509 11.69134295
213 1 15.75080355 12.40054182 11.69134295
214 1 15.75080355 17.36075855 11.69134295
215 1 15.75080355 22.32097528 11.69134295
216 1 15.75080355 27.28119201 11.69134295
217 1 0.00000000 0.00000000 14.02961154
218 1 0.00000000 4.96021673 14.02961154
219 1 0.00000000 9.92043346 14.02961154
220 1 0.00000000 14.88065019 14.02961154
221 1 0.00000000 19.84086692 14.02961154
222 1 0.00000000 24.80108365 14.02961154
223 1 2.86378246 0.00000000 14.02961154
224 1 2.86378246 4.96021673 14.02961154
225 1 2.86378246 9.92043346 14.02961154
226 1 2.86378246 14.88065019 14.02961154
227 1 2.86378246 19.84086692 14.02961154
228 1 2.86378246 24.80108365 14.02961154
229 1 5.72756493 0.00000000 14.02961154
230 1 5.72756493 4.96021673 14.02961154
231 1 5.72756493 9.92043346 14.02961154
232 1 5.72756493 14.88065019 14.02961154
233 1 5.72756493 19.84086692 14.02961154
234 1 5.72756493 24.80108365 14.02961154
235 1 8.59134739 0.00000000 14.02961154
236 1 8.59134739 4.96021673 14.02961154
237 1 8.59134739 9.92043346 14.02961154
238 1 8.59134739 14.88065019 14.02961154
239 1 8.59134739 19.84086692 14.02961154
240 1 8.59134739 24.80108365 14.02961154
241 1 11.45512986 0.00000000 14.02961154
242 1 11.45512986 4.96021673 14.02961154
243 1 11.45512986 9.92043346 14.02961154
244 1 11.45512986 14.88065019 14.02961154
245 1 11.45512986 19.84086692 14.02961154
246 1 11.45512986 24.80108365 14.02961154
247 1 14.31891232 0.00000000 14.02961154
248 1 14.31891232 4.96021673 14.02961154
249 1 14.31891232 9.92043346 14.02961154
250 1 14.31891232 14.88065019 14.02961154
251 1 14.31891232 19.84086692 14.02961154
252 1 14.31891232 24.80108365 14.02961154
253 1 1.43189123 2.48010836 16.36788013
254 1 1.43189123 7.44032509 16.36788013
255 1 1.43189123 12.40054182 16.36788013
256 1 1.43189123 17.36075855 16.36788013
257 1 1.43189123 22.32097528 16.36788013
258 1 1.43189123 27.28119201 16.36788013
259 1 4.29567370 2.48010836 16.36788013
260 1 4.29567370 7.44032509 16.36788013
261 1 4.29567370 12.40054182 16.36788013
262 1 4.29567370 17.36075855 16.36788013
263 1 4.29567370 22.32097528 16.36788013
264 1 4.29567370 27.28119201 16.36788013
265 1 7.15945616 2.48010836 16.36788013
266 1 7.15945616 7.44032509 16.36788013
267 1 7.15945616 12.40054182 16.36788013
268 1 7.15945616 17.36075855 16.36788013
269 1 7.15945616 22.32097528 16.36788013
270 1 7.15945616 27.28119201 16.36788013
271 1 10.02323862 2.48010836 16.36788013
272 1 10.02323862 7.44032509 16.36788013
273 1 10.02323862 12.40054182 16.36788013
274 1 10.02323862 17.36075855 16.36788013
275 1 10.02323862 22.32097528 16.36788013
276 1 10.02323862 27.28119201 16.36788013
277 1 12.88702109 2.48010836 16.36788013
278 1 12.88702109 7.44032509 16.36788013
279 1 12.88702109 12.40054182 16.36788013
280 1 12.88702109 17.36075855 16.36788013
281 1 12.88702109 22.32097528 16.36788013
282 1 12.88702109 27.28119201 16.36788013
283 1 15.75080355 2.48010836 16.36788013
284 1 15.75080355 7.44032509 16.36788013
285 1 15.75080355 12.40054182 16.36788013
286 1 15.75080355 17.36075855 16.36788013
287 1 15.75080355 22.32097528 16.36788013
288 1 15.75080355 27.28119201 16.36788013
289 1 0.00000000 0.00000000 18.70614872
290 1 0.00000000 4.96021673 18.70614872
291 1 0.00000000 9.92043346 18.70614872
292 1 0.00000000 14.88065019 18.70614872
293 1 0.00000000 19.84086692 18.70614872
294 1 0.00000000 24.80108365 18.70614872
295 1 2.86378246 0.00000000 18.70614872
296 1 2.86378246 4.96021673 18.70614872
297 1 2.86378246 9.92043346 18.70614872
298 1 2.86378246 14.88065019 18.70614872
299 1 2.86378246 19.84086692 18.70614872
300 1 2.86378246 24.80108365 18.70614872
301 1 5.72756493 0.00000000 18.70614872
302 1 5.72756493 4.96021673 18.70614872
303 1 5.72756493 9.92043346 18.70614872
304 1 5.72756493 14.88065019 18.70614872
305 1 5.72756493 19.84086692 18.70614872
306 1 5.72756493 24.80108365 18.70614872
307 1 8.59134739 0.00000000 18.70614872
308 1 8.59134739 4.96021673 18.70614872
309 1 8.59134739 9.92043346 18.70614872
310 1 8.59134739 14.88065019 18.70614872
311 1 8.59134739 19.84086692 18.70614872
312 1 8.59134739 24.80108365 18.70614872
313 1 11.45512986 0.00000000 18.70614872
314 1 11.45512986 4.96021673 18.70614872
315 1 11.45512986 9.92043346 18.70614872
316 1 11.45512986 14.88065019 18.70614872
317 1 11.45512986 19.84086692 18.70614872
318 1 11.45512986 24.80108365 18.70614872
319 1 14.31891232 0.00000000 18.70614872
320 1 14.31891232 4.96021673 18.70614872
321 1 14.31891232 9.92043346 18.70614872
322 1 14.31891232 14.88065019 18.70614872
323 1 14.31891232 19.84086692 18.70614872
324 1 14.31891232 24.80108365 18.70614872
325 1 1.43189123 2.48010836 21.04441731
326 1 1.43189123 7.44032509 21.04441731
327 1 1.43189123 12.40054182 21.04441731
328 1 1.43189123 17.36075855 21.04441731
329 1 1.43189123 22.32097528 21.04441731
330 1 1.43189123 27.28119201 21.04441731
331 1 4.29567370 2.48010836 21.04441731
332 1 4.29567370 7.44032509 21.04441731
333 1 4.29567370 12.40054182 21.04441731
334 1 4.29567370 17.36075855 21.04441731
335 1 4.29567370 22.32097528 21.04441731
336 1 4.29567370 27.28119201 21.04441731
337 1 7.15945616 2.48010836 21.04441731
338 1 7.15945616 7.44032509 21.04441731
339 1 7.15945616 12.40054182 21.04441731
340 1 7.15945616 17.36075855 21.04441731
341 1 7.15945616 22.32097528 21.04441731
342 1 7.15945616 27.28119201 21.04441731
343 1 10.02323862 2.48010836 21.04441731
344 1 10.02323862 7.44032509 21.04441731
345 1 10.02323862 12.40054182 21.04441731
346 1 10.02323862 17.36075855 21.04441731
347 1 10.02323862 22.32097528 21.04441731
348 1 10.02323862 27.28119201 21.04441731
349 1 12.88702109 2.48010836 21.04441731
350 1 12.88702109 7.44032509 21.04441731
351 1 12.88702109 12.40054182 21.04441731
352 1 12.88702109 17.36075855 21.04441731
353 1 12.88702109 22.32097528 21.04441731
354 1 12.88702109 27.28119201 21.04441731
355 1 15.75080355 2.48010836 21.04441731
356 1 15.75080355 7.44032509 21.04441731
357 1 15.75080355 12.40054182 21.04441731
358 1 15.75080355 17.36075855 21.04441731
359 1 15.75080355 22.32097528 21.04441731
360 1 15.75080355 27.28119201 21.04441731
361 1 0.00000000 0.00000000 23.38268590
362 1 0.00000000 4.96021673 23.38268590
363 1 0.00000000 9.92043346 23.38268590
364 1 0.00000000 14.88065019 23.38268590
365 1 0.00000000 19.84086692 23.38268590
366 1 0.00000000 24.80108365 23.38268590
367 1 2.86378246 0.00000000 23.38268590
368 1 2.86378246 4.96021673 23.38268590
369 1 2.86378246 9.92043346 23.38268590
370 1 2.86378246 14.88065019 23.38268590
371 1 2.86378246 19.84086692 23.38268590
372 1 2.86378246 24.80108365 23.38268590
373 1 5.72756493 0.00000000 23.38268590
374 1 5.72756493 4.96021673 23.38268590
375 1 5.72756493 9.92043346 23.38268590
376 1 5.72756493 14.88065019 23.38268590
377 1 5.72756493 19.84086692 23.38268590
378 1 5.72756493 24.80108365 23.38268590
379 1 8.59134739 0.00000000 23.38268590
380 1 8.59134739 4.96021673 23.38268590
381 1 8.59134739 9.92043346 23.38268590
382 1 8.59134739 14.88065019 23.38268590
383 1 8.59134739 19.84086692 23.38268590
384 1 8.59134739 24.80108365 23.38268590
385 1 11.45512986 0.00000000 23.38268590
386 1 11.45512986 4.96021673 23.38268590
387 1 11.45512986 9.92043346 23.38268590
388 1 11.45512986 14.88065019 23.38268590
389 1 11.45512986 19.84086692 23.38268590
390 1 11.45512986 24.80108365 23.38268590
391 1 14.31891232 0.00000000 23.38268590
392 1 14.31891232 4.96021673 23.38268590
393 1 14.31891232 9.92043346 23.38268590
394 1 14.31891232 14.88065019 23.38268590
395 1 14.31891232 19.84086692 23.38268590
396 1 14.31891232 24.80108365 23.38268590
397 1 1.43189123 2.48010836 25.72095449
398 1 1.43189123 7.44032509 25.72095449
399 1 1.43189123 12.40054182 25.72095449
400 1 1.43189123 17.36075855 25.72095449
401 1 1.43189123 22.32097528 25.72095449
402 1 1.43189123 27.28119201 25.72095449
403 1 4.29567370 2.48010836 25.72095449
404 1 4.29567370 7.44032509 25.72095449
405 1 4.29567370 12.40054182 25.72095449
406 1 4.29567370 17.36075855 25.72095449
407 1 4.29567370 22.32097528 25.72095449
408 1 4.29567370 27.28119201 25.72095449
409 1 7.15945616 2.48010836 25.72095449
410 1 7.15945616 7.44032509 25.72095449
411 1 7.15945616 12.40054182 25.72095449
412 1 7.15945616 17.36075855 25.72095449
413 1 7.15945616 22.32097528 25.72095449
414 1 7.15945616 27.28119201 25.72095449
415 1 10.02323862 2.48010836 25.72095449
416 1 10.02323862 7.44032509 25.72095449
417 1 10.02323862 12.40054182 25.72095449
418 1 10.02323862 17.36075855 25.72095449
419 1 10.02323862 22.32097528 25.72095449
420 1 10.02323862 27.28119201 25.72095449
421 1 12.88702109 2.48010836 25.72095449
422 1 12.88702109 7.44032509 25.72095449
423 1 12.88702109 12.40054182 25.72095449
424 1 12.88702109 17.36075855 25.72095449
425 1 12.88702109 22.32097528 25.72095449
426 1 12.88702109 27.28119201 25.72095449
427 1 15.75080355 2.48010836 25.72095449
428 1 15.75080355 7.44032509 25.72095449
429 1 15.75080355 12.40054182 25.72095449
430 1 15.75080355 17.36075855 25.72095449
431 1 15.75080355 22.32097528 25.72095449
432 1 15.75080355 27.28119201 25.72095449
