# FCC structure - OPTIMIZED (smaller supercell)
# Composition: {'Al': 1.0, 'Co': 0.0, 'Cr': 0.0}
# Al-Cr-Co System (Group 1) - Assignment 2 - MM309

864 atoms
3 atom types

0.0 24.30000000 xlo xhi
0.0 24.30000000 ylo yhi
0.0 24.30000000 zlo zhi

Masses

1 26.9815  # Al
2 58.9332  # Co
3 51.9961  # Cr

Atoms # atomic

1 1 0.00000000 0.00000000 0.00000000
2 1 2.02500000 2.02500000 0.00000000
3 1 2.02500000 0.00000000 2.02500000
4 1 0.00000000 2.02500000 2.02500000
5 1 0.00000000 0.00000000 4.05000000
6 1 2.02500000 2.02500000 4.05000000
7 1 2.02500000 0.00000000 6.07500000
8 1 0.00000000 2.02500000 6.07500000
9 1 0.00000000 0.00000000 8.10000000
10 1 2.02500000 2.02500000 8.10000000
11 1 2.02500000 0.00000000 10.12500000
12 1 0.00000000 2.02500000 10.12500000
13 1 0.00000000 0.00000000 12.15000000
14 1 2.02500000 2.02500000 12.15000000
15 1 2.02500000 0.00000000 14.17500000
16 1 0.00000000 2.02500000 14.17500000
17 1 0.00000000 0.00000000 16.20000000
18 1 2.02500000 2.02500000 16.20000000
19 1 2.02500000 0.00000000 18.22500000
20 1 0.00000000 2.02500000 18.22500000
21 1 0.00000000 0.00000000 20.25000000
22 1 2.02500000 2.02500000 20.25000000
23 1 2.02500000 0.00000000 22.27500000
24 1 0.00000000 2.02500000 22.27500000
25 1 0.00000000 4.05000000 0.00000000
26 1 2.02500000 6.07500000 0.00000000
27 1 2.02500000 4.05000000 2.02500000
28 1 0.00000000 6.07500000 2.02500000
29 1 0.00000000 4.05000000 4.05000000
30 1 2.02500000 6.07500000 4.05000000
31 1 2.02500000 4.05000000 6.07500000
32 1 0.00000000 6.07500000 6.07500000
33 1 0.00000000 4.05000000 8.10000000
34 1 2.02500000 6.07500000 8.10000000
35 1 2.02500000 4.05000000 10.12500000
36 1 0.00000000 6.07500000 10.12500000
37 1 0.00000000 4.05000000 12.15000000
38 1 2.02500000 6.07500000 12.15000000
39 1 2.02500000 4.05000000 14.17500000
40 1 0.00000000 6.07500000 14.17500000
41 1 0.00000000 4.05000000 16.20000000
42 1 2.02500000 6.07500000 16.20000000
43 1 2.02500000 4.05000000 18.22500000
44 1 0.00000000 6.07500000 18.22500000
45 1 0.00000000 4.05000000 20.25000000
46 1 2.02500000 6.07500000 20.25000000
47 1 2.02500000 4.05000000 22.27500000
48 1 0.00000000 6.07500000 22.27500000
49 1 0.00000000 8.10000000 0.00000000
50 1 2.02500000 10.12500000 0.00000000
51 1 2.02500000 8.10000000 2.02500000
52 1 0.00000000 10.12500000 2.02500000
53 1 0.00000000 8.10000000 4.05000000
54 1 2.02500000 10.12500000 4.05000000
55 1 2.02500000 8.10000000 6.07500000
56 1 0.00000000 10.12500000 6.07500000
57 1 0.00000000 8.10000000 8.10000000
58 1 2.02500000 10.12500000 8.10000000
59 1 2.02500000 8.10000000 10.12500000
60 1 0.00000000 10.12500000 10.12500000
61 1 0.00000000 8.10000000 12.15000000
62 1 2.02500000 10.12500000 12.15000000
63 1 2.02500000 8.10000000 14.17500000
64 1 0.00000000 10.12500000 14.17500000
65 1 0.00000000 8.10000000 16.20000000
66 1 2.02500000 10.12500000 16.20000000
67 1 2.02500000 8.10000000 18.22500000
68 1 0.00000000 10.12500000 18.22500000
69 1 0.00000000 8.10000000 20.25000000
70 1 2.02500000 10.12500000 20.25000000
71 1 2.02500000 8.10000000 22.27500000
72 1 0.00000000 10.12500000 22.27500000
73 1 0.00000000 12.15000000 0.00000000
74 1 2.02500000 14.17500000 0.00000000
75 1 2.02500000 12.15000000 2.02500000
76 1 0.00000000 14.17500000 2.02500000
77 1 0.00000000 12.15000000 4.05000000
78 1 2.02500000 14.17500000 4.05000000
79 1 2.02500000 12.15000000 6.07500000
80 1 0.00000000 14.17500000 6.07500000
81 1 0.00000000 12.15000000 8.10000000
82 1 2.02500000 14.17500000 8.10000000
83 1 2.02500000 12.15000000 10.12500000
84 1 0.00000000 14.17500000 10.12500000
85 1 0.00000000 12.15000000 12.15000000
86 1 2.02500000 14.17500000 12.15000000
87 1 2.02500000 12.15000000 14.17500000
88 1 0.00000000 14.17500000 14.17500000
89 1 0.00000000 12.15000000 16.20000000
90 1 2.02500000 14.17500000 16.20000000
91 1 2.02500000 12.15000000 18.22500000
92 1 0.00000000 14.17500000 18.22500000
93 1 0.00000000 12.15000000 20.25000000
94 1 2.02500000 14.17500000 20.25000000
95 1 2.02500000 12.15000000 22.27500000
96 1 0.00000000 14.17500000 22.27500000
97 1 0.00000000 16.20000000 0.00000000
98 1 2.02500000 18.22500000 0.00000000
99 1 2.02500000 16.20000000 2.02500000
100 1 0.00000000 18.22500000 2.02500000
101 1 0.00000000 16.20000000 4.05000000
102 1 2.02500000 18.22500000 4.05000000
103 1 2.02500000 16.20000000 6.07500000
104 1 0.00000000 18.22500000 6.07500000
105 1 0.00000000 16.20000000 8.10000000
106 1 2.02500000 18.22500000 8.10000000
107 1 2.02500000 16.20000000 10.12500000
108 1 0.00000000 18.22500000 10.12500000
109 1 0.00000000 16.20000000 12.15000000
110 1 2.02500000 18.22500000 12.15000000
111 1 2.02500000 16.20000000 14.17500000
112 1 0.00000000 18.22500000 14.17500000
113 1 0.00000000 16.20000000 16.20000000
114 1 2.02500000 18.22500000 16.20000000
115 1 2.02500000 16.20000000 18.22500000
116 1 0.00000000 18.22500000 18.22500000
117 1 0.00000000 16.20000000 20.25000000
118 1 2.02500000 18.22500000 20.25000000
119 1 2.02500000 16.20000000 22.27500000
120 1 0.00000000 18.22500000 22.27500000
121 1 0.00000000 20.25000000 0.00000000
122 1 2.02500000 22.27500000 0.00000000
123 1 2.02500000 20.25000000 2.02500000
124 1 0.00000000 22.27500000 2.02500000
125 1 0.00000000 20.25000000 4.05000000
126 1 2.02500000 22.27500000 4.05000000
127 1 2.02500000 20.25000000 6.07500000
128 1 0.00000000 22.27500000 6.07500000
129 1 0.00000000 20.25000000 8.10000000
130 1 2.02500000 22.27500000 8.10000000
131 1 2.02500000 20.25000000 10.12500000
132 1 0.00000000 22.27500000 10.12500000
133 1 0.00000000 20.25000000 12.15000000
134 1 2.02500000 22.27500000 12.15000000
135 1 2.02500000 20.25000000 14.17500000
136 1 0.00000000 22.27500000 14.17500000
137 1 0.00000000 20.25000000 16.20000000
138 1 2.02500000 22.27500000 16.20000000
139 1 2.02500000 20.25000000 18.22500000
140 1 0.00000000 22.27500000 18.22500000
141 1 0.00000000 20.25000000 20.25000000
142 1 2.02500000 22.27500000 20.25000000
143 1 2.02500000 20.25000000 22.27500000
144 1 0.00000000 22.27500000 22.27500000
145 1 4.05000000 0.00000000 0.00000000
146 1 6.07500000 2.02500000 0.00000000
147 1 6.07500000 0.00000000 2.02500000
148 1 4.05000000 2.02500000 2.02500000
149 1 4.05000000 0.00000000 4.05000000
150 1 6.07500000 2.02500000 4.05000000
151 1 6.07500000 0.00000000 6.07500000
152 1 4.05000000 2.02500000 6.07500000
153 1 4.05000000 0.00000000 8.10000000
154 1 6.07500000 2.02500000 8.10000000
155 1 6.07500000 0.00000000 10.12500000
156 1 4.05000000 2.02500000 10.12500000
157 1 4.05000000 0.00000000 12.15000000
158 1 6.07500000 2.02500000 12.15000000
159 1 6.07500000 0.00000000 14.17500000
160 1 4.05000000 2.02500000 14.17500000
161 1 4.05000000 0.00000000 16.20000000
162 1 6.07500000 2.02500000 16.20000000
163 1 6.07500000 0.00000000 18.22500000
164 1 4.05000000 2.02500000 18.22500000
165 1 4.05000000 0.00000000 20.25000000
166 1 6.07500000 2.02500000 20.25000000
167 1 6.07500000 0.00000000 22.27500000
168 1 4.05000000 2.02500000 22.27500000
169 1 4.05000000 4.05000000 0.00000000
170 1 6.07500000 6.07500000 0.00000000
171 1 6.07500000 4.05000000 2.02500000
172 1 4.05000000 6.07500000 2.02500000
173 1 4.05000000 4.05000000 4.05000000
174 1 6.07500000 6.07500000 4.05000000
175 1 6.07500000 4.05000000 6.07500000
176 1 4.05000000 6.07500000 6.07500000
177 1 4.05000000 4.05000000 8.10000000
178 1 6.07500000 6.07500000 8.10000000
179 1 6.07500000 4.05000000 10.12500000
180 1 4.05000000 6.07500000 10.12500000
181 1 4.05000000 4.05000000 12.15000000
182 1 6.07500000 6.07500000 12.15000000
183 1 6.07500000 4.05000000 14.17500000
184 1 4.05000000 6.07500000 14.17500000
185 1 4.05000000 4.05000000 16.20000000
186 1 6.07500000 6.07500000 16.20000000
187 1 6.07500000 4.05000000 18.22500000
188 1 4.05000000 6.07500000 18.22500000
189 1 4.05000000 4.05000000 20.25000000
190 1 6.07500000 6.07500000 20.25000000
191 1 6.07500000 4.05000000 22.27500000
192 1 4.05000000 6.07500000 22.27500000
193 1 4.05000000 8.10000000 0.00000000
194 1 6.07500000 10.12500000 0.00000000
195 1 6.07500000 8.10000000 2.02500000
196 1 4.05000000 10.12500000 2.02500000
197 1 4.05000000 8.10000000 4.05000000
198 1 6.07500000 10.12500000 4.05000000
199 1 6.07500000 8.10000000 6.07500000
200 1 4.05000000 10.12500000 6.07500000
201 1 4.05000000 8.10000000 8.10000000
202 1 6.07500000 10.12500000 8.10000000
203 1 6.07500000 8.10000000 10.12500000
204 1 4.05000000 10.12500000 10.12500000
205 1 4.05000000 8.10000000 12.15000000
206 1 6.07500000 10.12500000 12.15000000
207 1 6.07500000 8.10000000 14.17500000
208 1 4.05000000 10.12500000 14.17500000
209 1 4.05000000 8.10000000 16.20000000
210 1 6.07500000 10.12500000 16.20000000
211 1 6.07500000 8.10000000 18.22500000
212 1 4.05000000 10.12500000 18.22500000
213 1 4.05000000 8.10000000 20.25000000
214 1 6.07500000 10.12500000 20.25000000
215 1 6.07500000 8.10000000 22.27500000
216 1 4.05000000 10.12500000 22.27500000
217 1 4.05000000 12.15000000 0.00000000
218 1 6.07500000 14.17500000 0.00000000
219 1 6.07500000 12.15000000 2.02500000
220 1 4.05000000 14.17500000 2.02500000
221 1 4.05000000 12.15000000 4.05000000
222 1 6.07500000 14.17500000 4.05000000
223 1 6.07500000 12.15000000 6.07500000
224 1 4.05000000 14.17500000 6.07500000
225 1 4.05000000 12.15000000 8.10000000
226 1 6.07500000 14.17500000 8.10000000
227 1 6.07500000 12.15000000 10.12500000
228 1 4.05000000 14.17500000 10.12500000
229 1 4.05000000 12.15000000 12.15000000
230 1 6.07500000 14.17500000 12.15000000
231 1 6.07500000 12.15000000 14.17500000
232 1 4.05000000 14.17500000 14.17500000
233 1 4.05000000 12.15000000 16.20000000
234 1 6.07500000 14.17500000 16.20000000
235 1 6.07500000 12.15000000 18.22500000
236 1 4.05000000 14.17500000 18.22500000
237 1 4.05000000 12.15000000 20.25000000
238 1 6.07500000 14.17500000 20.25000000
239 1 6.07500000 12.15000000 22.27500000
240 1 4.05000000 14.17500000 22.27500000
241 1 4.05000000 16.20000000 0.00000000
242 1 6.07500000 18.22500000 0.00000000
243 1 6.07500000 16.20000000 2.02500000
244 1 4.05000000 18.22500000 2.02500000
245 1 4.05000000 16.20000000 4.05000000
246 1 6.07500000 18.22500000 4.05000000
247 1 6.07500000 16.20000000 6.07500000
248 1 4.05000000 18.22500000 6.07500000
249 1 4.05000000 16.20000000 8.10000000
250 1 6.07500000 18.22500000 8.10000000
251 1 6.07500000 16.20000000 10.12500000
252 1 4.05000000 18.22500000 10.12500000
253 1 4.05000000 16.20000000 12.15000000
254 1 6.07500000 18.22500000 12.15000000
255 1 6.07500000 16.20000000 14.17500000
256 1 4.05000000 18.22500000 14.17500000
257 1 4.05000000 16.20000000 16.20000000
258 1 6.07500000 18.22500000 16.20000000
259 1 6.07500000 16.20000000 18.22500000
260 1 4.05000000 18.22500000 18.22500000
261 1 4.05000000 16.20000000 20.25000000
262 1 6.07500000 18.22500000 20.25000000
263 1 6.07500000 16.20000000 22.27500000
264 1 4.05000000 18.22500000 22.27500000
265 1 4.05000000 20.25000000 0.00000000
266 1 6.07500000 22.27500000 0.00000000
267 1 6.07500000 20.25000000 2.02500000
268 1 4.05000000 22.27500000 2.02500000
269 1 4.05000000 20.25000000 4.05000000
270 1 6.07500000 22.27500000 4.05000000
271 1 6.07500000 20.25000000 6.07500000
272 1 4.05000000 22.27500000 6.07500000
273 1 4.05000000 20.25000000 8.10000000
274 1 6.07500000 22.27500000 8.10000000
275 1 6.07500000 20.25000000 10.12500000
276 1 4.05000000 22.27500000 10.12500000
277 1 4.05000000 20.25000000 12.15000000
278 1 6.07500000 22.27500000 12.15000000
279 1 6.07500000 20.25000000 14.17500000
280 1 4.05000000 22.27500000 14.17500000
281 1 4.05000000 20.25000000 16.20000000
282 1 6.07500000 22.27500000 16.20000000
283 1 6.07500000 20.25000000 18.22500000
284 1 4.05000000 22.27500000 18.22500000
285 1 4.05000000 20.25000000 20.25000000
286 1 6.07500000 22.27500000 20.25000000
287 1 6.07500000 20.25000000 22.27500000
288 1 4.05000000 22.27500000 22.27500000
289 1 8.10000000 0.00000000 0.00000000
290 1 10.12500000 2.02500000 0.00000000
291 1 10.12500000 0.00000000 2.02500000
292 1 8.10000000 2.02500000 2.02500000
293 1 8.10000000 0.00000000 4.05000000
294 1 10.12500000 2.02500000 4.05000000
295 1 10.12500000 0.00000000 6.07500000
296 1 8.10000000 2.02500000 6.07500000
297 1 8.10000000 0.00000000 8.10000000
298 1 10.12500000 2.02500000 8.10000000
299 1 10.12500000 0.00000000 10.12500000
300 1 8.10000000 2.02500000 10.12500000
301 1 8.10000000 0.00000000 12.15000000
302 1 10.12500000 2.02500000 12.15000000
303 1 10.12500000 0.00000000 14.17500000
304 1 8.10000000 2.02500000 14.17500000
305 1 8.10000000 0.00000000 16.20000000
306 1 10.12500000 2.02500000 16.20000000
307 1 10.12500000 0.00000000 18.22500000
308 1 8.10000000 2.02500000 18.22500000
309 1 8.10000000 0.00000000 20.25000000
310 1 10.12500000 2.02500000 20.25000000
311 1 10.12500000 0.00000000 22.27500000
312 1 8.10000000 2.02500000 22.27500000
313 1 8.10000000 4.05000000 0.00000000
314 1 10.12500000 6.07500000 0.00000000
315 1 10.12500000 4.05000000 2.02500000
316 1 8.10000000 6.07500000 2.02500000
317 1 8.10000000 4.05000000 4.05000000
318 1 10.12500000 6.07500000 4.05000000
319 1 10.12500000 4.05000000 6.07500000
320 1 8.10000000 6.07500000 6.07500000
321 1 8.10000000 4.05000000 8.10000000
322 1 10.12500000 6.07500000 8.10000000
323 1 10.12500000 4.05000000 10.12500000
324 1 8.10000000 6.07500000 10.12500000
325 1 8.10000000 4.05000000 12.15000000
326 1 10.12500000 6.07500000 12.15000000
327 1 10.12500000 4.05000000 14.17500000
328 1 8.10000000 6.07500000 14.17500000
329 1 8.10000000 4.05000000 16.20000000
330 1 10.12500000 6.07500000 16.20000000
331 1 10.12500000 4.05000000 18.22500000
332 1 8.10000000 6.07500000 18.22500000
333 1 8.10000000 4.05000000 20.25000000
334 1 10.12500000 6.07500000 20.25000000
335 1 10.12500000 4.05000000 22.27500000
336 1 8.10000000 6.07500000 22.27500000
337 1 8.10000000 8.10000000 0.00000000
338 1 10.12500000 10.12500000 0.00000000
339 1 10.12500000 8.10000000 2.02500000
340 1 8.10000000 10.12500000 2.02500000
341 1 8.10000000 8.10000000 4.05000000
342 1 10.12500000 10.12500000 4.05000000
343 1 10.12500000 8.10000000 6.07500000
344 1 8.10000000 10.12500000 6.07500000
345 1 8.10000000 8.10000000 8.10000000
346 1 10.12500000 10.12500000 8.10000000
347 1 10.12500000 8.10000000 10.12500000
348 1 8.10000000 10.12500000 10.12500000
349 1 8.10000000 8.10000000 12.15000000
350 1 10.12500000 10.12500000 12.15000000
351 1 10.12500000 8.10000000 14.17500000
352 1 8.10000000 10.12500000 14.17500000
353 1 8.10000000 8.10000000 16.20000000
354 1 10.12500000 10.12500000 16.20000000
355 1 10.12500000 8.10000000 18.22500000
356 1 8.10000000 10.12500000 18.22500000
357 1 8.10000000 8.10000000 20.25000000
358 1 10.12500000 10.12500000 20.25000000
359 1 10.12500000 8.10000000 22.27500000
360 1 8.10000000 10.12500000 22.27500000
361 1 8.10000000 12.15000000 0.00000000
362 1 10.12500000 14.17500000 0.00000000
363 1 10.12500000 12.15000000 2.02500000
364 1 8.10000000 14.17500000 2.02500000
365 1 8.10000000 12.15000000 4.05000000
366 1 10.12500000 14.17500000 4.05000000
367 1 10.12500000 12.15000000 6.07500000
368 1 8.10000000 14.17500000 6.07500000
369 1 8.10000000 12.15000000 8.10000000
370 1 10.12500000 14.17500000 8.10000000
371 1 10.12500000 12.15000000 10.12500000
372 1 8.10000000 14.17500000 10.12500000
373 1 8.10000000 12.15000000 12.15000000
374 1 10.12500000 14.17500000 12.15000000
375 1 10.12500000 12.15000000 14.17500000
376 1 8.10000000 14.17500000 14.17500000
377 1 8.10000000 12.15000000 16.20000000
378 1 10.12500000 14.17500000 16.20000000
379 1 10.12500000 12.15000000 18.22500000
380 1 8.10000000 14.17500000 18.22500000
381 1 8.10000000 12.15000000 20.25000000
382 1 10.12500000 14.17500000 20.25000000
383 1 10.12500000 12.15000000 22.27500000
384 1 8.10000000 14.17500000 22.27500000
385 1 8.10000000 16.20000000 0.00000000
386 1 10.12500000 18.22500000 0.00000000
387 1 10.12500000 16.20000000 2.02500000
388 1 8.10000000 18.22500000 2.02500000
389 1 8.10000000 16.20000000 4.05000000
390 1 10.12500000 18.22500000 4.05000000
391 1 10.12500000 16.20000000 6.07500000
392 1 8.10000000 18.22500000 6.07500000
393 1 8.10000000 16.20000000 8.10000000
394 1 10.12500000 18.22500000 8.10000000
395 1 10.12500000 16.20000000 10.12500000
396 1 8.10000000 18.22500000 10.12500000
397 1 8.10000000 16.20000000 12.15000000
398 1 10.12500000 18.22500000 12.15000000
399 1 10.12500000 16.20000000 14.17500000
400 1 8.10000000 18.22500000 14.17500000
401 1 8.10000000 16.20000000 16.20000000
402 1 10.12500000 18.22500000 16.20000000
403 1 10.12500000 16.20000000 18.22500000
404 1 8.10000000 18.22500000 18.22500000
405 1 8.10000000 16.20000000 20.25000000
406 1 10.12500000 18.22500000 20.25000000
407 1 10.12500000 16.20000000 22.27500000
408 1 8.10000000 18.22500000 22.27500000
409 1 8.10000000 20.25000000 0.00000000
410 1 10.12500000 22.27500000 0.00000000
411 1 10.12500000 20.25000000 2.02500000
412 1 8.10000000 22.27500000 2.02500000
413 1 8.10000000 20.25000000 4.05000000
414 1 10.12500000 22.27500000 4.05000000
415 1 10.12500000 20.25000000 6.07500000
416 1 8.10000000 22.27500000 6.07500000
417 1 8.10000000 20.25000000 8.10000000
418 1 10.12500000 22.27500000 8.10000000
419 1 10.12500000 20.25000000 10.12500000
420 1 8.10000000 22.27500000 10.12500000
421 1 8.10000000 20.25000000 12.15000000
422 1 10.12500000 22.27500000 12.15000000
423 1 10.12500000 20.25000000 14.17500000
424 1 8.10000000 22.27500000 14.17500000
425 1 8.10000000 20.25000000 16.20000000
426 1 10.12500000 22.27500000 16.20000000
427 1 10.12500000 20.25000000 18.22500000
428 1 8.10000000 22.27500000 18.22500000
429 1 8.10000000 20.25000000 20.25000000
430 1 10.12500000 22.27500000 20.25000000
431 1 10.12500000 20.25000000 22.27500000
432 1 8.10000000 22.27500000 22.27500000
433 1 12.15000000 0.00000000 0.00000000
434 1 14.17500000 2.02500000 0.00000000
435 1 14.17500000 0.00000000 2.02500000
436 1 12.15000000 2.02500000 2.02500000
437 1 12.15000000 0.00000000 4.05000000
438 1 14.17500000 2.02500000 4.05000000
439 1 14.17500000 0.00000000 6.07500000
440 1 12.15000000 2.02500000 6.07500000
441 1 12.15000000 0.00000000 8.10000000
442 1 14.17500000 2.02500000 8.10000000
443 1 14.17500000 0.00000000 10.12500000
444 1 12.15000000 2.02500000 10.12500000
445 1 12.15000000 0.00000000 12.15000000
446 1 14.17500000 2.02500000 12.15000000
447 1 14.17500000 0.00000000 14.17500000
448 1 12.15000000 2.02500000 14.17500000
449 1 12.15000000 0.00000000 16.20000000
450 1 14.17500000 2.02500000 16.20000000
451 1 14.17500000 0.00000000 18.22500000
452 1 12.15000000 2.02500000 18.22500000
453 1 12.15000000 0.00000000 20.25000000
454 1 14.17500000 2.02500000 20.25000000
455 1 14.17500000 0.00000000 22.27500000
456 1 12.15000000 2.02500000 22.27500000
457 1 12.15000000 4.05000000 0.00000000
458 1 14.17500000 6.07500000 0.00000000
459 1 14.17500000 4.05000000 2.02500000
460 1 12.15000000 6.07500000 2.02500000
461 1 12.15000000 4.05000000 4.05000000
462 1 14.17500000 6.07500000 4.05000000
463 1 14.17500000 4.05000000 6.07500000
464 1 12.15000000 6.07500000 6.07500000
465 1 12.15000000 4.05000000 8.10000000
466 1 14.17500000 6.07500000 8.10000000
467 1 14.17500000 4.05000000 10.12500000
468 1 12.15000000 6.07500000 10.12500000
469 1 12.15000000 4.05000000 12.15000000
470 1 14.17500000 6.07500000 12.15000000
471 1 14.17500000 4.05000000 14.17500000
472 1 12.15000000 6.07500000 14.17500000
473 1 12.15000000 4.05000000 16.20000000
474 1 14.17500000 6.07500000 16.20000000
475 1 14.17500000 4.05000000 18.22500000
476 1 12.15000000 6.07500000 18.22500000
477 1 12.15000000 4.05000000 20.25000000
478 1 14.17500000 6.07500000 20.25000000
479 1 14.17500000 4.05000000 22.27500000
480 1 12.15000000 6.07500000 22.27500000
481 1 12.15000000 8.10000000 0.00000000
482 1 14.17500000 10.12500000 0.00000000
483 1 14.17500000 8.10000000 2.02500000
484 1 12.15000000 10.12500000 2.02500000
485 1 12.15000000 8.10000000 4.05000000
486 1 14.17500000 10.12500000 4.05000000
487 1 14.17500000 8.10000000 6.07500000
488 1 12.15000000 10.12500000 6.07500000
489 1 12.15000000 8.10000000 8.10000000
490 1 14.17500000 10.12500000 8.10000000
491 1 14.17500000 8.10000000 10.12500000
492 1 12.15000000 10.12500000 10.12500000
493 1 12.15000000 8.10000000 12.15000000
494 1 14.17500000 10.12500000 12.15000000
495 1 14.17500000 8.10000000 14.17500000
496 1 12.15000000 10.12500000 14.17500000
497 1 12.15000000 8.10000000 16.20000000
498 1 14.17500000 10.12500000 16.20000000
499 1 14.17500000 8.10000000 18.22500000
500 1 12.15000000 10.12500000 18.22500000
501 1 12.15000000 8.10000000 20.25000000
502 1 14.17500000 10.12500000 20.25000000
503 1 14.17500000 8.10000000 22.27500000
504 1 12.15000000 10.12500000 22.27500000
505 1 12.15000000 12.15000000 0.00000000
506 1 14.17500000 14.17500000 0.00000000
507 1 14.17500000 12.15000000 2.02500000
508 1 12.15000000 14.17500000 2.02500000
509 1 12.15000000 12.15000000 4.05000000
510 1 14.17500000 14.17500000 4.05000000
511 1 14.17500000 12.15000000 6.07500000
512 1 12.15000000 14.17500000 6.07500000
513 1 12.15000000 12.15000000 8.10000000
514 1 14.17500000 14.17500000 8.10000000
515 1 14.17500000 12.15000000 10.12500000
516 1 12.15000000 14.17500000 10.12500000
517 1 12.15000000 12.15000000 12.15000000
518 1 14.17500000 14.17500000 12.15000000
519 1 14.17500000 12.15000000 14.17500000
520 1 12.15000000 14.17500000 14.17500000
521 1 12.15000000 12.15000000 16.20000000
522 1 14.17500000 14.17500000 16.20000000
523 1 14.17500000 12.15000000 18.22500000
524 1 12.15000000 14.17500000 18.22500000
525 1 12.15000000 12.15000000 20.25000000
526 1 14.17500000 14.17500000 20.25000000
527 1 14.17500000 12.15000000 22.27500000
528 1 12.15000000 14.17500000 22.27500000
529 1 12.15000000 16.20000000 0.00000000
530 1 14.17500000 18.22500000 0.00000000
531 1 14.17500000 16.20000000 2.02500000
532 1 12.15000000 18.22500000 2.02500000
533 1 12.15000000 16.20000000 4.05000000
534 1 14.17500000 18.22500000 4.05000000
535 1 14.17500000 16.20000000 6.07500000
536 1 12.15000000 18.22500000 6.07500000
537 1 12.15000000 16.20000000 8.10000000
538 1 14.17500000 18.22500000 8.10000000
539 1 14.17500000 16.20000000 10.12500000
540 1 12.15000000 18.22500000 10.12500000
541 1 12.15000000 16.20000000 12.15000000
542 1 14.17500000 18.22500000 12.15000000
543 1 14.17500000 16.20000000 14.17500000
544 1 12.15000000 18.22500000 14.17500000
545 1 12.15000000 16.20000000 16.20000000
546 1 14.17500000 18.22500000 16.20000000
547 1 14.17500000 16.20000000 18.22500000
548 1 12.15000000 18.22500000 18.22500000
549 1 12.15000000 16.20000000 20.25000000
550 1 14.17500000 18.22500000 20.25000000
551 1 14.17500000 16.20000000 22.27500000
552 1 12.15000000 18.22500000 22.27500000
553 1 12.15000000 20.25000000 0.00000000
554 1 14.17500000 22.27500000 0.00000000
555 1 14.17500000 20.25000000 2.02500000
556 1 12.15000000 22.27500000 2.02500000
557 1 12.15000000 20.25000000 4.05000000
558 1 14.17500000 22.27500000 4.05000000
559 1 14.17500000 20.25000000 6.07500000
560 1 12.15000000 22.27500000 6.07500000
561 1 12.15000000 20.25000000 8.10000000
562 1 14.17500000 22.27500000 8.10000000
563 1 14.17500000 20.25000000 10.12500000
564 1 12.15000000 22.27500000 10.12500000
565 1 12.15000000 20.25000000 12.15000000
566 1 14.17500000 22.27500000 12.15000000
567 1 14.17500000 20.25000000 14.17500000
568 1 12.15000000 22.27500000 14.17500000
569 1 12.15000000 20.25000000 16.20000000
570 1 14.17500000 22.27500000 16.20000000
571 1 14.17500000 20.25000000 18.22500000
572 1 12.15000000 22.27500000 18.22500000
573 1 12.15000000 20.25000000 20.25000000
574 1 14.17500000 22.27500000 20.25000000
575 1 14.17500000 20.25000000 22.27500000
576 1 12.15000000 22.27500000 22.27500000
577 1 16.20000000 0.00000000 0.00000000
578 1 18.22500000 2.02500000 0.00000000
579 1 18.22500000 0.00000000 2.02500000
580 1 16.20000000 2.02500000 2.02500000
581 1 16.20000000 0.00000000 4.05000000
582 1 18.22500000 2.02500000 4.05000000
583 1 18.22500000 0.00000000 6.07500000
584 1 16.20000000 2.02500000 6.07500000
585 1 16.20000000 0.00000000 8.10000000
586 1 18.22500000 2.02500000 8.10000000
587 1 18.22500000 0.00000000 10.12500000
588 1 16.20000000 2.02500000 10.12500000
589 1 16.20000000 0.00000000 12.15000000
590 1 18.22500000 2.02500000 12.15000000
591 1 18.22500000 0.00000000 14.17500000
592 1 16.20000000 2.02500000 14.17500000
593 1 16.20000000 0.00000000 16.20000000
594 1 18.22500000 2.02500000 16.20000000
595 1 18.22500000 0.00000000 18.22500000
596 1 16.20000000 2.02500000 18.22500000
597 1 16.20000000 0.00000000 20.25000000
598 1 18.22500000 2.02500000 20.25000000
599 1 18.22500000 0.00000000 22.27500000
600 1 16.20000000 2.02500000 22.27500000
601 1 16.20000000 4.05000000 0.00000000
602 1 18.22500000 6.07500000 0.00000000
603 1 18.22500000 4.05000000 2.02500000
604 1 16.20000000 6.07500000 2.02500000
605 1 16.20000000 4.05000000 4.05000000
606 1 18.22500000 6.07500000 4.05000000
607 1 18.22500000 4.05000000 6.07500000
608 1 16.20000000 6.07500000 6.07500000
609 1 16.20000000 4.05000000 8.10000000
610 1 18.22500000 6.07500000 8.10000000
611 1 18.22500000 4.05000000 10.12500000
612 1 16.20000000 6.07500000 10.12500000
613 1 16.20000000 4.05000000 12.15000000
614 1 18.22500000 6.07500000 12.15000000
615 1 18.22500000 4.05000000 14.17500000
616 1 16.20000000 6.07500000 14.17500000
617 1 16.20000000 4.05000000 16.20000000
618 1 18.22500000 6.07500000 16.20000000
619 1 18.22500000 4.05000000 18.22500000
620 1 16.20000000 6.07500000 18.22500000
621 1 16.20000000 4.05000000 20.25000000
622 1 18.22500000 6.07500000 20.25000000
623 1 18.22500000 4.05000000 22.27500000
624 1 16.20000000 6.07500000 22.27500000
625 1 16.20000000 8.10000000 0.00000000
626 1 18.22500000 10.12500000 0.00000000
627 1 18.22500000 8.10000000 2.02500000
628 1 16.20000000 10.12500000 2.02500000
629 1 16.20000000 8.10000000 4.05000000
630 1 18.22500000 10.12500000 4.05000000
631 1 18.22500000 8.10000000 6.07500000
632 1 16.20000000 10.12500000 6.07500000
633 1 16.20000000 8.10000000 8.10000000
634 1 18.22500000 10.12500000 8.10000000
635 1 18.22500000 8.10000000 10.12500000
636 1 16.20000000 10.12500000 10.12500000
637 1 16.20000000 8.10000000 12.15000000
638 1 18.22500000 10.12500000 12.15000000
639 1 18.22500000 8.10000000 14.17500000
640 1 16.20000000 10.12500000 14.17500000
641 1 16.20000000 8.10000000 16.20000000
642 1 18.22500000 10.12500000 16.20000000
643 1 18.22500000 8.10000000 18.22500000
644 1 16.20000000 10.12500000 18.22500000
645 1 16.20000000 8.10000000 20.25000000
646 1 18.22500000 10.12500000 20.25000000
647 1 18.22500000 8.10000000 22.27500000
648 1 16.20000000 10.12500000 22.27500000
649 1 16.20000000 12.15000000 0.00000000
650 1 18.22500000 14.17500000 0.00000000
651 1 18.22500000 12.15000000 2.02500000
652 1 16.20000000 14.17500000 2.02500000
653 1 16.20000000 12.15000000 4.05000000
654 1 18.22500000 14.17500000 4.05000000
655 1 18.22500000 12.15000000 6.07500000
656 1 16.20000000 14.17500000 6.07500000
657 1 16.20000000 12.15000000 8.10000000
658 1 18.22500000 14.17500000 8.10000000
659 1 18.22500000 12.15000000 10.12500000
660 1 16.20000000 14.17500000 10.12500000
661 1 16.20000000 12.15000000 12.15000000
662 1 18.22500000 14.17500000 12.15000000
663 1 18.22500000 12.15000000 14.17500000
664 1 16.20000000 14.17500000 14.17500000
665 1 16.20000000 12.15000000 16.20000000
666 1 18.22500000 14.17500000 16.20000000
667 1 18.22500000 12.15000000 18.22500000
668 1 16.20000000 14.17500000 18.22500000
669 1 16.20000000 12.15000000 20.25000000
670 1 18.22500000 14.17500000 20.25000000
671 1 18.22500000 12.15000000 22.27500000
672 1 16.20000000 14.17500000 22.27500000
673 1 16.20000000 16.20000000 0.00000000
674 1 18.22500000 18.22500000 0.00000000
675 1 18.22500000 16.20000000 2.02500000
676 1 16.20000000 18.22500000 2.02500000
677 1 16.20000000 16.20000000 4.05000000
678 1 18.22500000 18.22500000 4.05000000
679 1 18.22500000 16.20000000 6.07500000
680 1 16.20000000 18.22500000 6.07500000
681 1 16.20000000 16.20000000 8.10000000
682 1 18.22500000 18.22500000 8.10000000
683 1 18.22500000 16.20000000 10.12500000
684 1 16.20000000 18.22500000 10.12500000
685 1 16.20000000 16.20000000 12.15000000
686 1 18.22500000 18.22500000 12.15000000
687 1 18.22500000 16.20000000 14.17500000
688 1 16.20000000 18.22500000 14.17500000
689 1 16.20000000 16.20000000 16.20000000
690 1 18.22500000 18.22500000 16.20000000
691 1 18.22500000 16.20000000 18.22500000
692 1 16.20000000 18.22500000 18.22500000
693 1 16.20000000 16.20000000 20.25000000
694 1 18.22500000 18.22500000 20.25000000
695 1 18.22500000 16.20000000 22.27500000
696 1 16.20000000 18.22500000 22.27500000
697 1 16.20000000 20.25000000 0.00000000
698 1 18.22500000 22.27500000 0.00000000
699 1 18.22500000 20.25000000 2.02500000
700 1 16.20000000 22.27500000 2.02500000
701 1 16.20000000 20.25000000 4.05000000
702 1 18.22500000 22.27500000 4.05000000
703 1 18.22500000 20.25000000 6.07500000
704 1 16.20000000 22.27500000 6.07500000
705 1 16.20000000 20.25000000 8.10000000
706 1 18.22500000 22.27500000 8.10000000
707 1 18.22500000 20.25000000 10.12500000
708 1 16.20000000 22.27500000 10.12500000
709 1 16.20000000 20.25000000 12.15000000
710 1 18.22500000 22.27500000 12.15000000
711 1 18.22500000 20.25000000 14.17500000
712 1 16.20000000 22.27500000 14.17500000
713 1 16.20000000 20.25000000 16.20000000
714 1 18.22500000 22.27500000 16.20000000
715 1 18.22500000 20.25000000 18.22500000
716 1 16.20000000 22.27500000 18.22500000
717 1 16.20000000 20.25000000 20.25000000
718 1 18.22500000 22.27500000 20.25000000
719 1 18.22500000 20.25000000 22.27500000
720 1 16.20000000 22.27500000 22.27500000
721 1 20.25000000 0.00000000 0.00000000
722 1 22.27500000 2.02500000 0.00000000
723 1 22.27500000 0.00000000 2.02500000
724 1 20.25000000 2.02500000 2.02500000
725 1 20.25000000 0.00000000 4.05000000
726 1 22.27500000 2.02500000 4.05000000
727 1 22.27500000 0.00000000 6.07500000
728 1 20.25000000 2.02500000 6.07500000
729 1 20.25000000 0.00000000 8.10000000
730 1 22.27500000 2.02500000 8.10000000
731 1 22.27500000 0.00000000 10.12500000
732 1 20.25000000 2.02500000 10.12500000