# FCC structure - OPTIMIZED (smaller supercell)
# Composition: {'Al': 0.0, 'Co': 0.5, 'Cr': 0.5}
# Al-Cr-Co System (Group 1) - Assignment 2 - MM309

864 atoms
3 atom types

0.0 19.28700000 xlo xhi
0.0 19.28700000 ylo yhi
0.0 19.28700000 zlo zhi

Masses

1 26.9815  # Al
2 58.9332  # Co
3 51.9961  # Cr

Atoms # atomic

1 2 0.00000000 0.00000000 0.00000000
2 2 1.60725000 1.60725000 0.00000000
3 3 1.60725000 0.00000000 1.60725000
4 3 0.00000000 1.60725000 1.60725000
5 2 0.00000000 0.00000000 3.21450000
6 3 1.60725000 1.60725000 3.21450000
7 2 1.60725000 0.00000000 4.82175000
8 3 0.00000000 1.60725000 4.82175000
9 2 0.00000000 0.00000000 6.42900000
10 3 1.60725000 1.60725000 6.42900000
11 2 1.60725000 0.00000000 8.03625000
12 2 0.00000000 1.60725000 8.03625000
13 2 0.00000000 0.00000000 9.64350000
14 2 1.60725000 1.60725000 9.64350000
15 3 1.60725000 0.00000000 11.25075000
16 3 0.00000000 1.60725000 11.25075000
17 2 0.00000000 0.00000000 12.85800000
18 3 1.60725000 1.60725000 12.85800000
19 3 1.60725000 0.00000000 14.46525000
20 2 0.00000000 1.60725000 14.46525000
21 3 0.00000000 0.00000000 16.07250000
22 2 1.60725000 1.60725000 16.07250000
23 3 1.60725000 0.00000000 17.67975000
24 2 0.00000000 1.60725000 17.67975000
25 2 0.00000000 3.21450000 0.00000000
26 2 1.60725000 4.82175000 0.00000000
27 2 1.60725000 3.21450000 1.60725000
28 2 0.00000000 4.82175000 1.60725000
29 3 0.00000000 3.21450000 3.21450000
30 2 1.60725000 4.82175000 3.21450000
31 3 1.60725000 3.21450000 4.82175000
32 2 0.00000000 4.82175000 4.82175000
33 2 0.00000000 3.21450000 6.42900000
34 3 1.60725000 4.82175000 6.42900000
35 2 1.60725000 3.21450000 8.03625000
36 2 0.00000000 4.82175000 8.03625000
37 3 0.00000000 3.21450000 9.64350000
38 2 1.60725000 4.82175000 9.64350000
39 3 1.60725000 3.21450000 11.25075000
40 3 0.00000000 4.82175000 11.25075000
41 3 0.00000000 3.21450000 12.85800000
42 2 1.60725000 4.82175000 12.85800000
43 2 1.60725000 3.21450000 14.46525000
44 2 0.00000000 4.82175000 14.46525000
45 3 0.00000000 3.21450000 16.07250000
46 3 1.60725000 4.82175000 16.07250000
47 3 1.60725000 3.21450000 17.67975000
48 3 0.00000000 4.82175000 17.67975000
49 2 0.00000000 6.42900000 0.00000000
50 3 1.60725000 8.03625000 0.00000000
51 2 1.60725000 6.42900000 1.60725000
52 3 0.00000000 8.03625000 1.60725000
53 2 0.00000000 6.42900000 3.21450000
54 3 1.60725000 8.03625000 3.21450000
55 2 1.60725000 6.42900000 4.82175000
56 3 0.00000000 8.03625000 4.82175000
57 2 0.00000000 6.42900000 6.42900000
58 2 1.60725000 8.03625000 6.42900000
59 3 1.60725000 6.42900000 8.03625000
60 3 0.00000000 8.03625000 8.03625000
61 3 0.00000000 6.42900000 9.64350000
62 2 1.60725000 8.03625000 9.64350000
63 2 1.60725000 6.42900000 11.25075000
64 3 0.00000000 8.03625000 11.25075000
65 2 0.00000000 6.42900000 12.85800000
66 2 1.60725000 8.03625000 12.85800000
67 2 1.60725000 6.42900000 14.46525000
68 3 0.00000000 8.03625000 14.46525000
69 3 0.00000000 6.42900000 16.07250000
70 2 1.60725000 8.03625000 16.07250000
71 2 1.60725000 6.42900000 17.67975000
72 3 0.00000000 8.03625000 17.67975000
73 3 0.00000000 9.64350000 0.00000000
74 2 1.60725000 11.25075000 0.00000000
75 2 1.60725000 9.64350000 1.60725000
76 3 0.00000000 11.25075000 1.60725000
77 2 0.00000000 9.64350000 3.21450000
78 3 1.60725000 11.25075000 3.21450000
79 2 1.60725000 9.64350000 4.82175000
80 2 0.00000000 11.25075000 4.82175000
81 3 0.00000000 9.64350000 6.42900000
82 3 1.60725000 11.25075000 6.42900000
83 2 1.60725000 9.64350000 8.03625000
84 3 0.00000000 11.25075000 8.03625000
85 3 0.00000000 9.64350000 9.64350000
86 3 1.60725000 11.25075000 9.64350000
87 3 1.60725000 9.64350000 11.25075000
88 3 0.00000000 11.25075000 11.25075000
89 2 0.00000000 9.64350000 12.85800000
90 2 1.60725000 11.25075000 12.85800000
91 3 1.60725000 9.64350000 14.46525000
92 2 0.00000000 11.25075000 14.46525000
93 3 0.00000000 9.64350000 16.07250000
94 3 1.60725000 11.25075000 16.07250000
95 2 1.60725000 9.64350000 17.67975000
96 3 0.00000000 11.25075000 17.67975000
97 3 0.00000000 12.85800000 0.00000000
98 3 1.60725000 14.46525000 0.00000000
99 2 1.60725000 12.85800000 1.60725000
100 2 0.00000000 14.46525000 1.60725000
101 2 0.00000000 12.85800000 3.21450000
102 2 1.60725000 14.46525000 3.21450000
103 3 1.60725000 12.85800000 4.82175000
104 3 0.00000000 14.46525000 4.82175000
105 2 0.00000000 12.85800000 6.42900000
106 3 1.60725000 14.46525000 6.42900000
107 2 1.60725000 12.85800000 8.03625000
108 3 0.00000000 14.46525000 8.03625000
109 2 0.00000000 12.85800000 9.64350000
110 2 1.60725000 14.46525000 9.64350000
111 3 1.60725000 12.85800000 11.25075000
112 2 0.00000000 14.46525000 11.25075000
113 3 0.00000000 12.85800000 12.85800000
114 2 1.60725000 14.46525000 12.85800000
115 2 1.60725000 12.85800000 14.46525000
116 3 0.00000000 14.46525000 14.46525000
117 3 0.00000000 12.85800000 16.07250000
118 3 1.60725000 14.46525000 16.07250000
119 2 1.60725000 12.85800000 17.67975000
120 3 0.00000000 14.46525000 17.67975000
121 2 0.00000000 16.07250000 0.00000000
122 3 1.60725000 17.67975000 0.00000000
123 3 1.60725000 16.07250000 1.60725000
124 2 0.00000000 17.67975000 1.60725000
125 2 0.00000000 16.07250000 3.21450000
126 3 1.60725000 17.67975000 3.21450000
127 3 1.60725000 16.07250000 4.82175000
128 2 0.00000000 17.67975000 4.82175000
129 2 0.00000000 16.07250000 6.42900000
130 3 1.60725000 17.67975000 6.42900000
131 2 1.60725000 16.07250000 8.03625000
132 3 0.00000000 17.67975000 8.03625000
133 2 0.00000000 16.07250000 9.64350000
134 3 1.60725000 17.67975000 9.64350000
135 2 1.60725000 16.07250000 11.25075000
136 3 0.00000000 17.67975000 11.25075000
137 3 0.00000000 16.07250000 12.85800000
138 3 1.60725000 17.67975000 12.85800000
139 2 1.60725000 16.07250000 14.46525000
140 2 0.00000000 17.67975000 14.46525000
141 3 0.00000000 16.07250000 16.07250000
142 2 1.60725000 17.67975000 16.07250000
143 3 1.60725000 16.07250000 17.67975000
144 2 0.00000000 17.67975000 17.67975000
145 2 3.21450000 0.00000000 0.00000000
146 2 4.82175000 1.60725000 0.00000000
147 2 4.82175000 0.00000000 1.60725000
148 2 3.21450000 1.60725000 1.60725000
149 3 3.21450000 0.00000000 3.21450000
150 2 4.82175000 1.60725000 3.21450000
151 3 4.82175000 0.00000000 4.82175000
152 2 3.21450000 1.60725000 4.82175000
153 3 3.21450000 0.00000000 6.42900000
154 3 4.82175000 1.60725000 6.42900000
155 2 4.82175000 0.00000000 8.03625000
156 2 3.21450000 1.60725000 8.03625000
157 2 3.21450000 0.00000000 9.64350000
158 2 4.82175000 1.60725000 9.64350000
159 3 4.82175000 0.00000000 11.25075000
160 3 3.21450000 1.60725000 11.25075000
161 2 3.21450000 0.00000000 12.85800000
162 2 4.82175000 1.60725000 12.85800000
163 2 4.82175000 0.00000000 14.46525000
164 2 3.21450000 1.60725000 14.46525000
165 3 3.21450000 0.00000000 16.07250000
166 3 4.82175000 1.60725000 16.07250000
167 3 4.82175000 0.00000000 17.67975000
168 2 3.21450000 1.60725000 17.67975000
169 3 3.21450000 3.21450000 0.00000000
170 2 4.82175000 4.82175000 0.00000000
171 2 4.82175000 3.21450000 1.60725000
172 3 3.21450000 4.82175000 1.60725000
173 3 3.21450000 3.21450000 3.21450000
174 2 4.82175000 4.82175000 3.21450000
175 3 4.82175000 3.21450000 4.82175000
176 2 3.21450000 4.82175000 4.82175000
177 3 3.21450000 3.21450000 6.42900000
178 2 4.82175000 4.82175000 6.42900000
179 3 4.82175000 3.21450000 8.03625000
180 2 3.21450000 4.82175000 8.03625000
181 3 3.21450000 3.21450000 9.64350000
182 3 4.82175000 4.82175000 9.64350000
183 2 4.82175000 3.21450000 11.25075000
184 3 3.21450000 4.82175000 11.25075000
185 2 3.21450000 3.21450000 12.85800000
186 2 4.82175000 4.82175000 12.85800000
187 3 4.82175000 3.21450000 14.46525000
188 3 3.21450000 4.82175000 14.46525000
189 3 3.21450000 3.21450000 16.07250000
190 3 4.82175000 4.82175000 16.07250000
191 3 4.82175000 3.21450000 17.67975000
192 3 3.21450000 4.82175000 17.67975000
193 2 3.21450000 6.42900000 0.00000000
194 2 4.82175000 8.03625000 0.00000000
195 3 4.82175000 6.42900000 1.60725000
196 3 3.21450000 8.03625000 1.60725000
197 2 3.21450000 6.42900000 3.21450000
198 3 4.82175000 8.03625000 3.21450000
199 3 4.82175000 6.42900000 4.82175000
200 2 3.21450000 8.03625000 4.82175000
201 2 3.21450000 6.42900000 6.42900000
202 2 4.82175000 8.03625000 6.42900000
203 2 4.82175000 6.42900000 8.03625000
204 3 3.21450000 8.03625000 8.03625000
205 2 3.21450000 6.42900000 9.64350000
206 2 4.82175000 8.03625000 9.64350000
207 3 4.82175000 6.42900000 11.25075000
208 3 3.21450000 8.03625000 11.25075000
209 3 3.21450000 6.42900000 12.85800000
210 2 4.82175000 8.03625000 12.85800000
211 3 4.82175000 6.42900000 14.46525000
212 2 3.21450000 8.03625000 14.46525000
213 2 3.21450000 6.42900000 16.07250000
214 3 4.82175000 8.03625000 16.07250000
215 3 4.82175000 6.42900000 17.67975000
216 2 3.21450000 8.03625000 17.67975000
217 3 3.21450000 9.64350000 0.00000000
218 3 4.82175000 11.25075000 0.00000000
219 2 4.82175000 9.64350000 1.60725000
220 3 3.21450000 11.25075000 1.60725000
221 2 3.21450000 9.64350000 3.21450000
222 2 4.82175000 11.25075000 3.21450000
223 2 4.82175000 9.64350000 4.82175000
224 3 3.21450000 11.25075000 4.82175000
225 2 3.21450000 9.64350000 6.42900000
226 3 4.82175000 11.25075000 6.42900000
227 3 4.82175000 9.64350000 8.03625000
228 2 3.21450000 11.25075000 8.03625000
229 3 3.21450000 9.64350000 9.64350000
230 3 4.82175000 11.25075000 9.64350000
231 3 4.82175000 9.64350000 11.25075000
232 2 3.21450000 11.25075000 11.25075000
233 2 3.21450000 9.64350000 12.85800000
234 2 4.82175000 11.25075000 12.85800000
235 2 4.82175000 9.64350000 14.46525000
236 2 3.21450000 11.25075000 14.46525000
237 3 3.21450000 9.64350000 16.07250000
238 2 4.82175000 11.25075000 16.07250000
239 3 4.82175000 9.64350000 17.67975000
240 2 3.21450000 11.25075000 17.67975000
241 3 3.21450000 12.85800000 0.00000000
242 3 4.82175000 14.46525000 0.00000000
243 3 4.82175000 12.85800000 1.60725000
244 3 3.21450000 14.46525000 1.60725000
245 3 3.21450000 12.85800000 3.21450000
246 3 4.82175000 14.46525000 3.21450000
247 3 4.82175000 12.85800000 4.82175000
248 2 3.21450000 14.46525000 4.82175000
249 2 3.21450000 12.85800000 6.42900000
250 3 4.82175000 14.46525000 6.42900000
251 3 4.82175000 12.85800000 8.03625000
252 3 3.21450000 14.46525000 8.03625000
253 3 3.21450000 12.85800000 9.64350000
254 3 4.82175000 14.46525000 9.64350000
255 3 4.82175000 12.85800000 11.25075000
256 2 3.21450000 14.46525000 11.25075000
257 2 3.21450000 12.85800000 12.85800000
258 2 4.82175000 14.46525000 12.85800000
259 3 4.82175000 12.85800000 14.46525000
260 2 3.21450000 14.46525000 14.46525000
261 2 3.21450000 12.85800000 16.07250000
262 3 4.82175000 14.46525000 16.07250000
263 2 4.82175000 12.85800000 17.67975000
264 2 3.21450000 14.46525000 17.67975000
265 3 3.21450000 16.07250000 0.00000000
266 3 4.82175000 17.67975000 0.00000000
267 2 4.82175000 16.07250000 1.60725000
268 3 3.21450000 17.67975000 1.60725000
269 2 3.21450000 16.07250000 3.21450000
270 3 4.82175000 17.67975000 3.21450000
271 3 4.82175000 16.07250000 4.82175000
272 3 3.21450000 17.67975000 4.82175000
273 2 3.21450000 16.07250000 6.42900000
274 3 4.82175000 17.67975000 6.42900000
275 3 4.82175000 16.07250000 8.03625000
276 2 3.21450000 17.67975000 8.03625000
277 2 3.21450000 16.07250000 9.64350000
278 3 4.82175000 17.67975000 9.64350000
279 3 4.82175000 16.07250000 11.25075000
280 2 3.21450000 17.67975000 11.25075000
281 3 3.21450000 16.07250000 12.85800000
282 2 4.82175000 17.67975000 12.85800000
283 3 4.82175000 16.07250000 14.46525000
284 3 3.21450000 17.67975000 14.46525000
285 2 3.21450000 16.07250000 16.07250000
286 3 4.82175000 17.67975000 16.07250000
287 3 4.82175000 16.07250000 17.67975000
288 2 3.21450000 17.67975000 17.67975000
289 2 6.42900000 0.00000000 0.00000000
290 3 8.03625000 1.60725000 0.00000000
291 2 8.03625000 0.00000000 1.60725000
292 2 6.42900000 1.60725000 1.60725000
293 3 6.42900000 0.00000000 3.21450000
294 3 8.03625000 1.60725000 3.21450000
295 3 8.03625000 0.00000000 4.82175000
296 3 6.42900000 1.60725000 4.82175000
297 3 6.42900000 0.00000000 6.42900000
298 2 8.03625000 1.60725000 6.42900000
299 2 8.03625000 0.00000000 8.03625000
300 3 6.42900000 1.60725000 8.03625000
301 2 6.42900000 0.00000000 9.64350000
302 3 8.03625000 1.60725000 9.64350000
303 3 8.03625000 0.00000000 11.25075000
304 2 6.42900000 1.60725000 11.25075000
305 3 6.42900000 0.00000000 12.85800000
306 2 8.03625000 1.60725000 12.85800000
307 2 8.03625000 0.00000000 14.46525000
308 2 6.42900000 1.60725000 14.46525000
309 3 6.42900000 0.00000000 16.07250000
310 2 8.03625000 1.60725000 16.07250000
311 3 8.03625000 0.00000000 17.67975000
312 3 6.42900000 1.60725000 17.67975000
313 2 6.42900000 3.21450000 0.00000000
314 3 8.03625000 4.82175000 0.00000000
315 3 8.03625000 3.21450000 1.60725000
316 2 6.42900000 4.82175000 1.60725000
317 2 6.42900000 3.21450000 3.21450000
318 3 8.03625000 4.82175000 3.21450000
319 3 8.03625000 3.21450000 4.82175000
320 2 6.42900000 4.82175000 4.82175000
321 3 6.42900000 3.21450000 6.42900000
322 3 8.03625000 4.82175000 6.42900000
323 2 8.03625000 3.21450000 8.03625000
324 2 6.42900000 4.82175000 8.03625000
325 2 6.42900000 3.21450000 9.64350000
326 2 8.03625000 4.82175000 9.64350000
327 3 8.03625000 3.21450000 11.25075000
328 2 6.42900000 4.82175000 11.25075000
329 2 6.42900000 3.21450000 12.85800000
330 3 8.03625000 4.82175000 12.85800000
331 2 8.03625000 3.21450000 14.46525000
332 3 6.42900000 4.82175000 14.46525000
333 3 6.42900000 3.21450000 16.07250000
334 2 8.03625000 4.82175000 16.07250000
335 3 8.03625000 3.21450000 17.67975000
336 2 6.42900000 4.82175000 17.67975000
337 2 6.42900000 6.42900000 0.00000000
338 2 8.03625000 8.03625000 0.00000000
339 3 8.03625000 6.42900000 1.60725000
340 2 6.42900000 8.03625000 1.60725000
341 2 6.42900000 6.42900000 3.21450000
342 3 8.03625000 8.03625000 3.21450000
343 3 8.03625000 6.42900000 4.82175000
344 2 6.42900000 8.03625000 4.82175000
345 2 6.42900000 6.42900000 6.42900000
346 3 8.03625000 8.03625000 6.42900000
347 2 8.03625000 6.42900000 8.03625000
348 3 6.42900000 8.03625000 8.03625000
349 3 6.42900000 6.42900000 9.64350000
350 2 8.03625000 8.03625000 9.64350000
351 3 8.03625000 6.42900000 11.25075000
352 3 6.42900000 8.03625000 11.25075000
353 2 6.42900000 6.42900000 12.85800000
354 3 8.03625000 8.03625000 12.85800000
355 3 8.03625000 6.42900000 14.46525000
356 2 6.42900000 8.03625000 14.46525000
357 2 6.42900000 6.42900000 16.07250000
358 2 8.03625000 8.03625000 16.07250000
359 3 8.03625000 6.42900000 17.67975000
360 2 6.42900000 8.03625000 17.67975000
361 2 6.42900000 9.64350000 0.00000000
362 2 8.03625000 11.25075000 0.00000000
363 2 8.03625000 9.64350000 1.60725000
364 3 6.42900000 11.25075000 1.60725000
365 3 6.42900000 9.64350000 3.21450000
366 2 8.03625000 11.25075000 3.21450000
367 3 8.03625000 9.64350000 4.82175000
368 2 6.42900000 11.25075000 4.82175000
369 3 6.42900000 9.64350000 6.42900000
370 3 8.03625000 11.25075000 6.42900000
371 2 8.03625000 9.64350000 8.03625000
372 2 6.42900000 11.25075000 8.03625000
373 3 6.42900000 9.64350000 9.64350000
374 3 8.03625000 11.25075000 9.64350000
375 2 8.03625000 9.64350000 11.25075000
376 3 6.42900000 11.25075000 11.25075000
377 3 6.42900000 9.64350000 12.85800000
378 2 8.03625000 11.25075000 12.85800000
379 2 8.03625000 9.64350000 14.46525000
380 2 6.42900000 11.25075000 14.46525000
381 2 6.42900000 9.64350000 16.07250000
382 2 8.03625000 11.25075000 16.07250000
383 3 8.03625000 9.64350000 17.67975000
384 2 6.42900000 11.25075000 17.67975000
385 3 6.42900000 12.85800000 0.00000000
386 3 8.03625000 14.46525000 0.00000000
387 2 8.03625000 12.85800000 1.60725000
388 3 6.42900000 14.46525000 1.60725000
389 3 6.42900000 12.85800000 3.21450000
390 3 8.03625000 14.46525000 3.21450000
391 3 8.03625000 12.85800000 4.82175000
392 3 6.42900000 14.46525000 4.82175000
393 3 6.42900000 12.85800000 6.42900000
394 3 8.03625000 14.46525000 6.42900000
395 3 8.03625000 12.85800000 8.03625000
396 3 6.42900000 14.46525000 8.03625000
397 3 6.42900000 12.85800000 9.64350000
398 2 8.03625000 14.46525000 9.64350000
399 3 8.03625000 12.85800000 11.25075000
400 3 6.42900000 14.46525000 11.25075000
401 2 6.42900000 12.85800000 12.85800000
402 3 8.03625000 14.46525000 12.85800000
403 3 8.03625000 12.85800000 14.46525000
404 3 6.42900000 14.46525000 14.46525000
405 3 6.42900000 12.85800000 16.07250000
406 3 8.03625000 14.46525000 16.07250000
407 3 8.03625000 12.85800000 17.67975000
408 3 6.42900000 14.46525000 17.67975000
409 2 6.42900000 16.07250000 0.00000000
410 2 8.03625000 17.67975000 0.00000000
411 3 8.03625000 16.07250000 1.60725000
412 2 6.42900000 17.67975000 1.60725000
413 3 6.42900000 16.07250000 3.21450000
414 2 8.03625000 17.67975000 3.21450000
415 3 8.03625000 16.07250000 4.82175000
416 2 6.42900000 17.67975000 4.82175000
417 2 6.42900000 16.07250000 6.42900000
418 2 8.03625000 17.67975000 6.42900000
419 3 8.03625000 16.07250000 8.03625000
420 3 6.42900000 17.67975000 8.03625000
421 2 6.42900000 16.07250000 9.64350000
422 3 8.03625000 17.67975000 9.64350000
423 2 8.03625000 16.07250000 11.25075000
424 2 6.42900000 17.67975000 11.25075000
425 3 6.42900000 16.07250000 12.85800000
426 3 8.03625000 17.67975000 12.85800000
427 2 8.03625000 16.07250000 14.46525000
428 2 6.42900000 17.67975000 14.46525000
429 3 6.42900000 16.07250000 16.07250000
430 2 8.03625000 17.67975000 16.07250000
431 2 8.03625000 16.07250000 17.67975000
432 2 6.42900000 17.67975000 17.67975000
433 3 9.64350000 0.00000000 0.00000000
434 2 11.25075000 1.60725000 0.00000000
435 2 11.25075000 0.00000000 1.60725000
436 3 9.64350000 1.60725000 1.60725000
437 2 9.64350000 0.00000000 3.21450000
438 3 11.25075000 1.60725000 3.21450000
439 2 11.25075000 0.00000000 4.82175000
440 3 9.64350000 1.60725000 4.82175000
441 3 9.64350000 0.00000000 6.42900000
442 3 11.25075000 1.60725000 6.42900000
443 2 11.25075000 0.00000000 8.03625000
444 3 9.64350000 1.60725000 8.03625000
445 2 9.64350000 0.00000000 9.64350000
446 2 11.25075000 1.60725000 9.64350000
447 3 11.25075000 0.00000000 11.25075000
448 3 9.64350000 1.60725000 11.25075000
449 3 9.64350000 0.00000000 12.85800000
450 2 11.25075000 1.60725000 12.85800000
451 2 11.25075000 0.00000000 14.46525000
452 3 9.64350000 1.60725000 14.46525000
453 2 9.64350000 0.00000000 16.07250000
454 3 11.25075000 1.60725000 16.07250000
455 2 11.25075000 0.00000000 17.67975000
456 2 9.64350000 1.60725000 17.67975000
457 3 9.64350000 3.21450000 0.00000000
458 2 11.25075000 4.82175000 0.00000000
459 3 11.25075000 3.21450000 1.60725000
460 3 9.64350000 4.82175000 1.60725000
461 2 9.64350000 3.21450000 3.21450000
462 2 11.25075000 4.82175000 3.21450000
463 2 11.25075000 3.21450000 4.82175000
464 3 9.64350000 4.82175000 4.82175000
465 2 9.64350000 3.21450000 6.42900000
466 3 11.25075000 4.82175000 6.42900000
467 2 11.25075000 3.21450000 8.03625000
468 3 9.64350000 4.82175000 8.03625000
469 2 9.64350000 3.21450000 9.64350000
470 2 11.25075000 4.82175000 9.64350000
471 2 11.25075000 3.21450000 11.25075000
472 2 9.64350000 4.82175000 11.25075000
473 2 9.64350000 3.21450000 12.85800000
474 2 11.25075000 4.82175000 12.85800000
475 3 11.25075000 3.21450000 14.46525000
476 2 9.64350000 4.82175000 14.46525000
477 2 9.64350000 3.21450000 16.07250000
478 3 11.25075000 4.82175000 16.07250000
479 3 11.25075000 3.21450000 17.67975000
480 3 9.64350000 4.82175000 17.67975000
481 3 9.64350000 6.42900000 0.00000000
482 2 11.25075000 8.03625000 0.00000000
483 3 11.25075000 6.42900000 1.60725000
484 2 9.64350000 8.03625000 1.60725000
485 3 9.64350000 6.42900000 3.21450000
486 2 11.25075000 8.03625000 3.21450000
487 3 11.25075000 6.42900000 4.82175000
488 2 9.64350000 8.03625000 4.82175000
489 3 9.64350000 6.42900000 6.42900000
490 2 11.25075000 8.03625000 6.42900000
491 2 11.25075000 6.42900000 8.03625000
492 3 9.64350000 8.03625000 8.03625000
493 2 9.64350000 6.42900000 9.64350000
494 3 11.25075000 8.03625000 9.64350000
495 3 11.25075000 6.42900000 11.25075000
496 2 9.64350000 8.03625000 11.25075000
497 3 9.64350000 6.42900000 12.85800000
498 3 11.25075000 8.03625000 12.85800000
499 3 11.25075000 6.42900000 14.46525000
500 2 9.64350000 8.03625000 14.46525000
501 3 9.64350000 6.42900000 16.07250000
502 2 11.25075000 8.03625000 16.07250000
503 3 11.25075000 6.42900000 17.67975000
504 3 9.64350000 8.03625000 17.67975000
505 2 9.64350000 9.64350000 0.00000000
506 3 11.25075000 11.25075000 0.00000000
507 3 11.25075000 9.64350000 1.60725000
508 3 9.64350000 11.25075000 1.60725000
509 3 9.64350000 9.64350000 3.21450000
510 3 11.25075000 11.25075000 3.21450000
511 3 11.25075000 9.64350000 4.82175000
512 3 9.64350000 11.25075000 4.82175000
513 2 9.64350000 9.64350000 6.42900000
514 3 11.25075000 11.25075000 6.42900000
515 2 11.25075000 9.64350000 8.03625000
516 2 9.64350000 11.25075000 8.03625000
517 2 9.64350000 9.64350000 9.64350000
518 2 11.25075000 11.25075000 9.64350000
519 3 11.25075000 9.64350000 11.25075000
520 3 9.64350000 11.25075000 11.25075000
521 3 9.64350000 9.64350000 12.85800000
522 2 11.25075000 11.25075000 12.85800000
523 2 11.25075000 9.64350000 14.46525000
524 2 9.64350000 11.25075000 14.46525000
525 2 9.64350000 9.64350000 16.07250000
526 2 11.25075000 11.25075000 16.07250000
527 2 11.25075000 9.64350000 17.67975000
528 2 9.64350000 11.25075000 17.67975000
529 2 9.64350000 12.85800000 0.00000000
530 2 11.25075000 14.46525000 0.00000000
531 2 11.25075000 12.85800000 1.60725000
532 3 9.64350000 14.46525000 1.60725000
533 2 9.64350000 12.85800000 3.21450000
534 3 11.25075000 14.46525000 3.21450000
535 3 11.25075000 12.85800000 4.82175000
536 3 9.64350000 14.46525000 4.82175000
537 3 9.64350000 12.85800000 6.42900000
538 2 11.25075000 14.46525000 6.42900000
539 3 11.25075000 12.85800000 8.03625000
540 3 9.64350000 14.46525000 8.03625000
541 2 9.64350000 12.85800000 9.64350000
542 2 11.25075000 14.46525000 9.64350000
543 3 11.25075000 12.85800000 11.25075000
544 2 9.64350000 14.46525000 11.25075000
545 2 9.64350000 12.85800000 12.85800000
546 3 11.25075000 14.46525000 12.85800000
547 2 11.25075000 12.85800000 14.46525000
548 2 9.64350000 14.46525000 14.46525000
549 2 9.64350000 12.85800000 16.07250000
550 2 11.25075000 14.46525000 16.07250000
551 3 11.25075000 12.85800000 17.67975000
552 3 9.64350000 14.46525000 17.67975000
553 2 9.64350000 16.07250000 0.00000000
554 3 11.25075000 17.67975000 0.00000000
555 2 11.25075000 16.07250000 1.60725000
556 3 9.64350000 17.67975000 1.60725000
557 3 9.64350000 16.07250000 3.21450000
558 2 11.25075000 17.67975000 3.21450000
559 2 11.25075000 16.07250000 4.82175000
560 2 9.64350000 17.67975000 4.82175000
561 2 9.64350000 16.07250000 6.42900000
562 3 11.25075000 17.67975000 6.42900000
563 3 11.25075000 16.07250000 8.03625000
564 3 9.64350000 17.67975000 8.03625000
565 2 9.64350000 16.07250000 9.64350000
566 2 11.25075000 17.67975000 9.64350000
567 3 11.25075000 16.07250000 11.25075000
568 2 9.64350000 17.67975000 11.25075000
569 3 9.64350000 16.07250000 12.85800000
570 2 11.25075000 17.67975000 12.85800000
571 2 11.25075000 16.07250000 14.46525000
572 3 9.64350000 17.67975000 14.46525000
573 3 9.64350000 16.07250000 16.07250000
574 2 11.25075000 17.67975000 16.07250000
575 3 11.25075000 16.07250000 17.67975000
576 3 9.64350000 17.67975000 17.67975000
577 3 12.85800000 0.00000000 0.00000000
578 2 14.46525000 1.60725000 0.00000000
579 2 14.46525000 0.00000000 1.60725000
580 3 12.85800000 1.60725000 1.60725000
581 3 12.85800000 0.00000000 3.21450000
582 3 14.46525000 1.60725000 3.21450000
583 2 14.46525000 0.00000000 4.82175000
584 2 12.85800000 1.60725000 4.82175000
585 3 12.85800000 0.00000000 6.42900000
586 3 14.46525000 1.60725000 6.42900000
587 2 14.46525000 0.00000000 8.03625000
588 2 12.85800000 1.60725000 8.03625000
589 3 12.85800000 0.00000000 9.64350000
590 2 14.46525000 1.60725000 9.64350000
591 2 14.46525000 0.00000000 11.25075000
592 3 12.85800000 1.60725000 11.25075000
593 3 12.85800000 0.00000000 12.85800000
594 2 14.46525000 1.60725000 12.85800000
595 2 14.46525000 0.00000000 14.46525000
596 3 12.85800000 1.60725000 14.46525000
597 3 12.85800000 0.00000000 16.07250000
598 3 14.46525000 1.60725000 16.07250000
599 3 14.46525000 0.00000000 17.67975000
600 2 12.85800000 1.60725000 17.67975000
601 2 12.85800000 3.21450000 0.00000000
602 2 14.46525000 4.82175000 0.00000000
603 3 14.46525000 3.21450000 1.60725000
604 3 12.85800000 4.82175000 1.60725000
605 3 12.85800000 3.21450000 3.21450000
606 3 14.46525000 4.82175000 3.21450000
607 2 14.46525000 3.21450000 4.82175000
608 3 12.85800000 4.82175000 4.82175000
609 3 12.85800000 3.21450000 6.42900000
610 3 14.46525000 4.82175000 6.42900000
611 2 14.46525000 3.21450000 8.03625000
612 3 12.85800000 4.82175000 8.03625000
613 2 12.85800000 3.21450000 9.64350000
614 3 14.46525000 4.82175000 9.64350000
615 3 14.46525000 3.21450000 11.25075000
616 3 12.85800000 4.82175000 11.25075000
617 2 12.85800000 3.21450000 12.85800000
618 2 14.46525000 4.82175000 12.85800000
619 3 14.46525000 3.21450000 14.46525000
620 2 12.85800000 4.82175000 14.46525000
621 3 12.85800000 3.21450000 16.07250000
622 2 14.46525000 4.82175000 16.07250000
623 2 14.46525000 3.21450000 17.67975000
624 2 12.85800000 4.82175000 17.67975000
625 3 12.85800000 6.42900000 0.00000000
626 3 14.46525000 8.03625000 0.00000000
627 2 14.46525000 6.42900000 1.60725000
628 3 12.85800000 8.03625000 1.60725000
629 2 12.85800000 6.42900000 3.21450000
630 2 14.46525000 8.03625000 3.21450000
631 3 14.46525000 6.42900000 4.82175000
632 2 12.85800000 8.03625000 4.82175000
633 2 12.85800000 6.42900000 6.42900000
634 2 14.46525000 8.03625000 6.42900000
635 3 14.46525000 6.42900000 8.03625000
636 2 12.85800000 8.03625000 8.03625000
637 2 12.85800000 6.42900000 9.64350000
638 3 14.46525000 8.03625000 9.64350000
639 3 14.46525000 6.42900000 11.25075000
640 2 12.85800000 8.03625000 11.25075000
641 3 12.85800000 6.42900000 12.85800000
642 2 14.46525000 8.03625000 12.85800000
643 2 14.46525000 6.42900000 14.46525000
644 3 12.85800000 8.03625000 14.46525000
645 3 12.85800000 6.42900000 16.07250000
646 2 14.46525000 8.03625000 16.07250000
647 2 14.46525000 6.42900000 17.67975000
648 2 12.85800000 8.03625000 17.67975000
649 2 12.85800000 9.64350000 0.00000000
650 3 14.46525000 11.25075000 0.00000000
651 3 14.46525000 9.64350000 1.60725000
652 2 12.85800000 11.25075000 1.60725000
653 3 12.85800000 9.64350000 3.21450000
654 3 14.46525000 11.25075000 3.21450000
655 3 14.46525000 9.64350000 4.82175000
656 2 12.85800000 11.25075000 4.82175000
657 2 12.85800000 9.64350000 6.42900000
658 3 14.46525000 11.25075000 6.42900000
659 2 14.46525000 9.64350000 8.03625000
660 2 12.85800000 11.25075000 8.03625000
661 2 12.85800000 9.64350000 9.64350000
662 2 14.46525000 11.25075000 9.64350000
663 3 14.46525000 9.64350000 11.25075000
664 2 12.85800000 11.25075000 11.25075000
665 3 12.85800000 9.64350000 12.85800000
666 2 14.46525000 11.25075000 12.85800000
667 3 14.46525000 9.64350000 14.46525000
668 3 12.85800000 11.25075000 14.46525000
669 3 12.85800000 9.64350000 16.07250000
670 3 14.46525000 11.25075000 16.07250000
671 2 14.46525000 9.64350000 17.67975000
672 2 12.85800000 11.25075000 17.67975000
673 2 12.85800000 12.85800000 0.00000000
674 2 14.46525000 14.46525000 0.00000000
675 2 14.46525000 12.85800000 1.60725000
676 2 12.85800000 14.46525000 1.60725000
677 2 12.85800000 12.85800000 3.21450000
678 3 14.46525000 14.46525000 3.21450000
679 2 14.46525000 12.85800000 4.82175000
680 2 12.85800000 14.46525000 4.82175000
681 3 12.85800000 12.85800000 6.42900000
682 3 14.46525000 14.46525000 6.42900000
683 2 14.46525000 12.85800000 8.03625000
684 3 12.85800000 14.46525000 8.03625000
685 2 12.85800000 12.85800000 9.64350000
686 2 14.46525000 14.46525000 9.64350000
687 2 14.46525000 12.85800000 11.25075000
688 2 12.85800000 14.46525000 11.25075000
689 2 12.85800000 12.85800000 12.85800000
690 2 14.46525000 14.46525000 12.85800000
691 2 14.46525000 12.85800000 14.46525000
692 2 12.85800000 14.46525000 14.46525000
693 2 12.85800000 12.85800000 16.07250000
694 3 14.46525000 14.46525000 16.07250000
695 2 14.46525000 12.85800000 17.67975000
696 3 12.85800000 14.46525000 17.67975000
697 3 12.85800000 16.07250000 0.00000000
698 3 14.46525000 17.67975000 0.00000000
699 3 14.46525000 16.07250000 1.60725000
700 3 12.85800000 17.67975000 1.60725000
701 3 12.85800000 16.07250000 3.21450000
702 2 14.46525000 17.67975000 3.21450000
703 2 14.46525000 16.07250000 4.82175000
704 3 12.85800000 17.67975000 4.82175000
705 3 12.85800000 16.07250000 6.42900000
706 3 14.46525000 17.67975000 6.42900000
707 2 14.46525000 16.07250000 8.03625000
708 2 12.85800000 17.67975000 8.03625000
709 3 12.85800000 16.07250000 9.64350000
710 2 14.46525000 17.67975000 9.64350000
711 3 14.46525000 16.07250000 11.25075000
712 2 12.85800000 17.67975000 11.25075000
713 3 12.85800000 16.07250000 12.85800000
714 2 14.46525000 17.67975000 12.85800000
715 2 14.46525000 16.07250000 14.46525000
716 3 12.85800000 17.67975000 14.46525000
717 3 12.85800000 16.07250000 16.07250000
718 2 14.46525000 17.67975000 16.07250000
719 2 14.46525000 16.07250000 17.67975000
720 3 12.85800000 17.67975000 17.67975000
721 3 16.07250000 0.00000000 0.00000000
722 2 17.67975000 1.60725000 0.00000000
723 3 17.67975000 0.00000000 1.60725000
724 2 16.07250000 1.60725000 1.60725000
725 2 16.07250000 0.00000000 3.21450000
726 2 17.67975000 1.60725000 3.21450000
727 3 17.67975000 0.00000000 4.82175000
728 2 16.07250000 1.60725000 4.82175000
729 3 16.07250000 0.00000000 6.42900000
730 2 17.67975000 1.60725000 6.42900000
731 3 17.67975000 0.00000000 8.03625000
732 2 16.07250000 1.60725000 8.03625000
733 2 16.07250000 0.00000000 9.64350000
734 3 17.67975000 1.60725000 9.64350000
735 2 17.67975000 0.00000000 11.25075000
736 3 16.07250000 1.60725000 11.25075000
737 2 16.07250000 0.00000000 12.85800000
738 3 17.67975000 1.60725000 12.85800000
739 3 17.67975000 0.00000000 14.46525000
740 3 16.07250000 1.60725000 14.46525000
741 3 16.07250000 0.00000000 16.07250000
742 2 17.67975000 1.60725000 16.07250000