# FCC structure - OPTIMIZED (smaller supercell)
# Composition: {'Al': 0.4, 'Co': 0.2, 'Cr': 0.4}
# Al-Cr-Co System (Group 1) - Assignment 2 - MM309

864 atoms
3 atom types

0.0 20.89680000 xlo xhi
0.0 20.89680000 ylo yhi
0.0 20.89680000 zlo zhi

Masses

1 26.9815  # Al
2 58.9332  # Co
3 51.9961  # Cr

Atoms # atomic

1 1 0.00000000 0.00000000 0.00000000
2 1 1.74140000 1.74140000 0.00000000
3 2 1.74140000 0.00000000 1.74140000
4 3 0.00000000 1.74140000 1.74140000
5 3 0.00000000 0.00000000 3.48280000
6 3 1.74140000 1.74140000 3.48280000
7 1 1.74140000 0.00000000 5.22420000
8 3 0.00000000 1.74140000 5.22420000
9 3 0.00000000 0.00000000 6.96560000
10 3 1.74140000 1.74140000 6.96560000
11 1 1.74140000 0.00000000 8.70700000
12 1 0.00000000 1.74140000 8.70700000
13 1 0.00000000 0.00000000 10.44840000
14 2 1.74140000 1.74140000 10.44840000
15 1 1.74140000 0.00000000 12.18980000
16 1 0.00000000 1.74140000 12.18980000
17 1 0.00000000 0.00000000 13.93120000
18 1 1.74140000 1.74140000 13.93120000
19 1 1.74140000 0.00000000 15.67260000
20 3 0.00000000 1.74140000 15.67260000
21 1 0.00000000 0.00000000 17.41400000
22 1 1.74140000 1.74140000 17.41400000
23 1 1.74140000 0.00000000 19.15540000
24 2 0.00000000 1.74140000 19.15540000
25 3 0.00000000 3.48280000 0.00000000
26 2 1.74140000 5.22420000 0.00000000
27 3 1.74140000 3.48280000 1.74140000
28 2 0.00000000 5.22420000 1.74140000
29 3 0.00000000 3.48280000 3.48280000
30 3 1.74140000 5.22420000 3.48280000
31 2 1.74140000 3.48280000 5.22420000
32 1 0.00000000 5.22420000 5.22420000
33 1 0.00000000 3.48280000 6.96560000
34 1 1.74140000 5.22420000 6.96560000
35 3 1.74140000 3.48280000 8.70700000
36 1 0.00000000 5.22420000 8.70700000
37 3 0.00000000 3.48280000 10.44840000
38 1 1.74140000 5.22420000 10.44840000
39 1 1.74140000 3.48280000 12.18980000
40 2 0.00000000 5.22420000 12.18980000
41 3 0.00000000 3.48280000 13.93120000
42 1 1.74140000 5.22420000 13.93120000
43 3 1.74140000 3.48280000 15.67260000
44 3 0.00000000 5.22420000 15.67260000
45 1 0.00000000 3.48280000 17.41400000
46 2 1.74140000 5.22420000 17.41400000
47 3 1.74140000 3.48280000 19.15540000
48 3 0.00000000 5.22420000 19.15540000
49 1 0.00000000 6.96560000 0.00000000
50 2 1.74140000 8.70700000 0.00000000
51 2 1.74140000 6.96560000 1.74140000
52 1 0.00000000 8.70700000 1.74140000
53 1 0.00000000 6.96560000 3.48280000
54 1 1.74140000 8.70700000 3.48280000
55 3 1.74140000 6.96560000 5.22420000
56 3 0.00000000 8.70700000 5.22420000
57 1 0.00000000 6.96560000 6.96560000
58 1 1.74140000 8.70700000 6.96560000
59 3 1.74140000 6.96560000 8.70700000
60 2 0.00000000 8.70700000 8.70700000
61 3 0.00000000 6.96560000 10.44840000
62 1 1.74140000 8.70700000 10.44840000
63 2 1.74140000 6.96560000 12.18980000
64 3 0.00000000 8.70700000 12.18980000
65 1 0.00000000 6.96560000 13.93120000
66 2 1.74140000 8.70700000 13.93120000
67 3 1.74140000 6.96560000 15.67260000
68 3 0.00000000 8.70700000 15.67260000
69 1 0.00000000 6.96560000 17.41400000
70 1 1.74140000 8.70700000 17.41400000
71 3 1.74140000 6.96560000 19.15540000
72 2 0.00000000 8.70700000 19.15540000
73 1 0.00000000 10.44840000 0.00000000
74 3 1.74140000 12.18980000 0.00000000
75 3 1.74140000 10.44840000 1.74140000
76 3 0.00000000 12.18980000 1.74140000
77 1 0.00000000 10.44840000 3.48280000
78 1 1.74140000 12.18980000 3.48280000
79 1 1.74140000 10.44840000 5.22420000
80 3 0.00000000 12.18980000 5.22420000
81 2 0.00000000 10.44840000 6.96560000
82 2 1.74140000 12.18980000 6.96560000
83 3 1.74140000 10.44840000 8.70700000
84 2 0.00000000 12.18980000 8.70700000
85 1 0.00000000 10.44840000 10.44840000
86 3 1.74140000 12.18980000 10.44840000
87 1 1.74140000 10.44840000 12.18980000
88 3 0.00000000 12.18980000 12.18980000
89 2 0.00000000 10.44840000 13.93120000
90 2 1.74140000 12.18980000 13.93120000
91 3 1.74140000 10.44840000 15.67260000
92 2 0.00000000 12.18980000 15.67260000
93 1 0.00000000 10.44840000 17.41400000
94 2 1.74140000 12.18980000 17.41400000
95 1 1.74140000 10.44840000 19.15540000
96 3 0.00000000 12.18980000 19.15540000
97 2 0.00000000 13.93120000 0.00000000
98 2 1.74140000 15.67260000 0.00000000
99 2 1.74140000 13.93120000 1.74140000
100 3 0.00000000 15.67260000 1.74140000
101 3 0.00000000 13.93120000 3.48280000
102 2 1.74140000 15.67260000 3.48280000
103 1 1.74140000 13.93120000 5.22420000
104 2 0.00000000 15.67260000 5.22420000
105 1 0.00000000 13.93120000 6.96560000
106 3 1.74140000 15.67260000 6.96560000
107 1 1.74140000 13.93120000 8.70700000
108 1 0.00000000 15.67260000 8.70700000
109 3 0.00000000 13.93120000 10.44840000
110 1 1.74140000 15.67260000 10.44840000
111 3 1.74140000 13.93120000 12.18980000
112 3 0.00000000 15.67260000 12.18980000
113 2 0.00000000 13.93120000 13.93120000
114 3 1.74140000 15.67260000 13.93120000
115 1 1.74140000 13.93120000 15.67260000
116 1 0.00000000 15.67260000 15.67260000
117 2 0.00000000 13.93120000 17.41400000
118 2 1.74140000 15.67260000 17.41400000
119 1 1.74140000 13.93120000 19.15540000
120 3 0.00000000 15.67260000 19.15540000
121 3 0.00000000 17.41400000 0.00000000
122 2 1.74140000 19.15540000 0.00000000
123 3 1.74140000 17.41400000 1.74140000
124 2 0.00000000 19.15540000 1.74140000
125 3 0.00000000 17.41400000 3.48280000
126 3 1.74140000 19.15540000 3.48280000
127 3 1.74140000 17.41400000 5.22420000
128 1 0.00000000 19.15540000 5.22420000
129 1 0.00000000 17.41400000 6.96560000
130 2 1.74140000 19.15540000 6.96560000
131 1 1.74140000 17.41400000 8.70700000
132 3 0.00000000 19.15540000 8.70700000
133 1 0.00000000 17.41400000 10.44840000
134 1 1.74140000 19.15540000 10.44840000
135 3 1.74140000 17.41400000 12.18980000
136 1 0.00000000 19.15540000 12.18980000
137 3 0.00000000 17.41400000 13.93120000
138 2 1.74140000 19.15540000 13.93120000
139 2 1.74140000 17.41400000 15.67260000
140 3 0.00000000 19.15540000 15.67260000
141 3 0.00000000 17.41400000 17.41400000
142 2 1.74140000 19.15540000 17.41400000
143 2 1.74140000 17.41400000 19.15540000
144 2 0.00000000 19.15540000 19.15540000
145 2 3.48280000 0.00000000 0.00000000
146 1 5.22420000 1.74140000 0.00000000
147 2 5.22420000 0.00000000 1.74140000
148 2 3.48280000 1.74140000 1.74140000
149 3 3.48280000 0.00000000 3.48280000
150 1 5.22420000 1.74140000 3.48280000
151 3 5.22420000 0.00000000 5.22420000
152 1 3.48280000 1.74140000 5.22420000
153 2 3.48280000 0.00000000 6.96560000
154 1 5.22420000 1.74140000 6.96560000
155 3 5.22420000 0.00000000 8.70700000
156 1 3.48280000 1.74140000 8.70700000
157 1 3.48280000 0.00000000 10.44840000
158 3 5.22420000 1.74140000 10.44840000
159 1 5.22420000 0.00000000 12.18980000
160 3 3.48280000 1.74140000 12.18980000
161 3 3.48280000 0.00000000 13.93120000
162 3 5.22420000 1.74140000 13.93120000
163 3 5.22420000 0.00000000 15.67260000
164 3 3.48280000 1.74140000 15.67260000
165 3 3.48280000 0.00000000 17.41400000
166 1 5.22420000 1.74140000 17.41400000
167 1 5.22420000 0.00000000 19.15540000
168 3 3.48280000 1.74140000 19.15540000
169 3 3.48280000 3.48280000 0.00000000
170 1 5.22420000 5.22420000 0.00000000
171 2 5.22420000 3.48280000 1.74140000
172 1 3.48280000 5.22420000 1.74140000
173 1 3.48280000 3.48280000 3.48280000
174 1 5.22420000 5.22420000 3.48280000
175 3 5.22420000 3.48280000 5.22420000
176 1 3.48280000 5.22420000 5.22420000
177 3 3.48280000 3.48280000 6.96560000
178 2 5.22420000 5.22420000 6.96560000
179 3 5.22420000 3.48280000 8.70700000
180 2 3.48280000 5.22420000 8.70700000
181 3 3.48280000 3.48280000 10.44840000
182 2 5.22420000 5.22420000 10.44840000
183 3 5.22420000 3.48280000 12.18980000
184 3 3.48280000 5.22420000 12.18980000
185 3 3.48280000 3.48280000 13.93120000
186 1 5.22420000 5.22420000 13.93120000
187 1 5.22420000 3.48280000 15.67260000
188 1 3.48280000 5.22420000 15.67260000
189 1 3.48280000 3.48280000 17.41400000
190 3 5.22420000 5.22420000 17.41400000
191 3 5.22420000 3.48280000 19.15540000
192 3 3.48280000 5.22420000 19.15540000
193 3 3.48280000 6.96560000 0.00000000
194 1 5.22420000 8.70700000 0.00000000
195 3 5.22420000 6.96560000 1.74140000
196 3 3.48280000 8.70700000 1.74140000
197 3 3.48280000 6.96560000 3.48280000
198 3 5.22420000 8.70700000 3.48280000
199 3 5.22420000 6.96560000 5.22420000
200 2 3.48280000 8.70700000 5.22420000
201 1 3.48280000 6.96560000 6.96560000
202 1 5.22420000 8.70700000 6.96560000
203 2 5.22420000 6.96560000 8.70700000
204 3 3.48280000 8.70700000 8.70700000
205 3 3.48280000 6.96560000 10.44840000
206 3 5.22420000 8.70700000 10.44840000
207 1 5.22420000 6.96560000 12.18980000
208 1 3.48280000 8.70700000 12.18980000
209 1 3.48280000 6.96560000 13.93120000
210 3 5.22420000 8.70700000 13.93120000
211 2 5.22420000 6.96560000 15.67260000
212 3 3.48280000 8.70700000 15.67260000
213 3 3.48280000 6.96560000 17.41400000
214 1 5.22420000 8.70700000 17.41400000
215 2 5.22420000 6.96560000 19.15540000
216 3 3.48280000 8.70700000 19.15540000
217 3 3.48280000 10.44840000 0.00000000
218 2 5.22420000 12.18980000 0.00000000
219 1 5.22420000 10.44840000 1.74140000
220 1 3.48280000 12.18980000 1.74140000
221 2 3.48280000 10.44840000 3.48280000
222 1 5.22420000 12.18980000 3.48280000
223 1 5.22420000 10.44840000 5.22420000
224 1 3.48280000 12.18980000 5.22420000
225 1 3.48280000 10.44840000 6.96560000
226 3 5.22420000 12.18980000 6.96560000
227 3 5.22420000 10.44840000 8.70700000
228 1 3.48280000 12.18980000 8.70700000
229 2 3.48280000 10.44840000 10.44840000
230 1 5.22420000 12.18980000 10.44840000
231 1 5.22420000 10.44840000 12.18980000
232 1 3.48280000 12.18980000 12.18980000
233 1 3.48280000 10.44840000 13.93120000
234 1 5.22420000 12.18980000 13.93120000
235 3 5.22420000 10.44840000 15.67260000
236 1 3.48280000 12.18980000 15.67260000
237 3 3.48280000 10.44840000 17.41400000
238 1 5.22420000 12.18980000 17.41400000
239 1 5.22420000 10.44840000 19.15540000
240 1 3.48280000 12.18980000 19.15540000
241 2 3.48280000 13.93120000 0.00000000
242 3 5.22420000 15.67260000 0.00000000
243 3 5.22420000 13.93120000 1.74140000
244 3 3.48280000 15.67260000 1.74140000
245 3 3.48280000 13.93120000 3.48280000
246 3 5.22420000 15.67260000 3.48280000
247 1 5.22420000 13.93120000 5.22420000
248 2 3.48280000 15.67260000 5.22420000
249 1 3.48280000 13.93120000 6.96560000
250 1 5.22420000 15.67260000 6.96560000
251 3 5.22420000 13.93120000 8.70700000
252 3 3.48280000 15.67260000 8.70700000
253 1 3.48280000 13.93120000 10.44840000
254 1 5.22420000 15.67260000 10.44840000
255 3 5.22420000 13.93120000 12.18980000
256 1 3.48280000 15.67260000 12.18980000
257 1 3.48280000 13.93120000 13.93120000
258 1 5.22420000 15.67260000 13.93120000
259 3 5.22420000 13.93120000 15.67260000
260 3 3.48280000 15.67260000 15.67260000
261 1 3.48280000 13.93120000 17.41400000
262 1 5.22420000 15.67260000 17.41400000
263 1 5.22420000 13.93120000 19.15540000
264 3 3.48280000 15.67260000 19.15540000
265 3 3.48280000 17.41400000 0.00000000
266 1 5.22420000 19.15540000 0.00000000
267 2 5.22420000 17.41400000 1.74140000
268 1 3.48280000 19.15540000 1.74140000
269 3 3.48280000 17.41400000 3.48280000
270 1 5.22420000 19.15540000 3.48280000
271 3 5.22420000 17.41400000 5.22420000
272 3 3.48280000 19.15540000 5.22420000
273 3 3.48280000 17.41400000 6.96560000
274 1 5.22420000 19.15540000 6.96560000
275 3 5.22420000 17.41400000 8.70700000
276 1 3.48280000 19.15540000 8.70700000
277 3 3.48280000 17.41400000 10.44840000
278 3 5.22420000 19.15540000 10.44840000
279 3 5.22420000 17.41400000 12.18980000
280 3 3.48280000 19.15540000 12.18980000
281 1 3.48280000 17.41400000 13.93120000
282 2 5.22420000 19.15540000 13.93120000
283 2 5.22420000 17.41400000 15.67260000
284 3 3.48280000 19.15540000 15.67260000
285 2 3.48280000 17.41400000 17.41400000
286 2 5.22420000 19.15540000 17.41400000
287 1 5.22420000 17.41400000 19.15540000
288 1 3.48280000 19.15540000 19.15540000
289 1 6.96560000 0.00000000 0.00000000
290 2 8.70700000 1.74140000 0.00000000
291 2 8.70700000 0.00000000 1.74140000
292 3 6.96560000 1.74140000 1.74140000
293 1 6.96560000 0.00000000 3.48280000
294 1 8.70700000 1.74140000 3.48280000
295 1 8.70700000 0.00000000 5.22420000
296 2 6.96560000 1.74140000 5.22420000
297 1 6.96560000 0.00000000 6.96560000
298 3 8.70700000 1.74140000 6.96560000
299 1 8.70700000 0.00000000 8.70700000
300 1 6.96560000 1.74140000 8.70700000
301 3 6.96560000 0.00000000 10.44840000
302 1 8.70700000 1.74140000 10.44840000
303 1 8.70700000 0.00000000 12.18980000
304 1 6.96560000 1.74140000 12.18980000
305 3 6.96560000 0.00000000 13.93120000
306 3 8.70700000 1.74140000 13.93120000
307 1 8.70700000 0.00000000 15.67260000
308 1 6.96560000 1.74140000 15.67260000
309 2 6.96560000 0.00000000 17.41400000
310 3 8.70700000 1.74140000 17.41400000
311 2 8.70700000 0.00000000 19.15540000
312 1 6.96560000 1.74140000 19.15540000
313 1 6.96560000 3.48280000 0.00000000
314 3 8.70700000 5.22420000 0.00000000
315 1 8.70700000 3.48280000 1.74140000
316 1 6.96560000 5.22420000 1.74140000
317 1 6.96560000 3.48280000 3.48280000
318 3 8.70700000 5.22420000 3.48280000
319 1 8.70700000 3.48280000 5.22420000
320 1 6.96560000 5.22420000 5.22420000
321 1 6.96560000 3.48280000 6.96560000
322 3 8.70700000 5.22420000 6.96560000
323 2 8.70700000 3.48280000 8.70700000
324 1 6.96560000 5.22420000 8.70700000
325 3 6.96560000 3.48280000 10.44840000
326 2 8.70700000 5.22420000 10.44840000
327 3 8.70700000 3.48280000 12.18980000
328 2 6.96560000 5.22420000 12.18980000
329 1 6.96560000 3.48280000 13.93120000
330 3 8.70700000 5.22420000 13.93120000
331 1 8.70700000 3.48280000 15.67260000
332 2 6.96560000 5.22420000 15.67260000
333 3 6.96560000 3.48280000 17.41400000
334 1 8.70700000 5.22420000 17.41400000
335 1 8.70700000 3.48280000 19.15540000
336 1 6.96560000 5.22420000 19.15540000
337 1 6.96560000 6.96560000 0.00000000
338 1 8.70700000 8.70700000 0.00000000
339 1 8.70700000 6.96560000 1.74140000
340 2 6.96560000 8.70700000 1.74140000
341 3 6.96560000 6.96560000 3.48280000
342 1 8.70700000 8.70700000 3.48280000
343 3 8.70700000 6.96560000 5.22420000
344 1 6.96560000 8.70700000 5.22420000
345 3 6.96560000 6.96560000 6.96560000
346 1 8.70700000 8.70700000 6.96560000
347 3 8.70700000 6.96560000 8.70700000
348 3 6.96560000 8.70700000 8.70700000
349 2 6.96560000 6.96560000 10.44840000
350 1 8.70700000 8.70700000 10.44840000
351 1 8.70700000 6.96560000 12.18980000
352 1 6.96560000 8.70700000 12.18980000
353 1 6.96560000 6.96560000 13.93120000
354 2 8.70700000 8.70700000 13.93120000
355 3 8.70700000 6.96560000 15.67260000
356 2 6.96560000 8.70700000 15.67260000
357 1 6.96560000 6.96560000 17.41400000
358 2 8.70700000 8.70700000 17.41400000
359 3 8.70700000 6.96560000 19.15540000
360 1 6.96560000 8.70700000 19.15540000
361 1 6.96560000 10.44840000 0.00000000
362 2 8.70700000 12.18980000 0.00000000
363 3 8.70700000 10.44840000 1.74140000
364 3 6.96560000 12.18980000 1.74140000
365 3 6.96560000 10.44840000 3.48280000
366 1 8.70700000 12.18980000 3.48280000
367 2 8.70700000 10.44840000 5.22420000
368 1 6.96560000 12.18980000 5.22420000
369 3 6.96560000 10.44840000 6.96560000
370 1 8.70700000 12.18980000 6.96560000
371 2 8.70700000 10.44840000 8.70700000
372 1 6.96560000 12.18980000 8.70700000
373 2 6.96560000 10.44840000 10.44840000
374 3 8.70700000 12.18980000 10.44840000
375 3 8.70700000 10.44840000 12.18980000
376 1 6.96560000 12.18980000 12.18980000
377 3 6.96560000 10.44840000 13.93120000
378 3 8.70700000 12.18980000 13.93120000
379 2 8.70700000 10.44840000 15.67260000
380 3 6.96560000 12.18980000 15.67260000
381 3 6.96560000 10.44840000 17.41400000
382 3 8.70700000 12.18980000 17.41400000
383 1 8.70700000 10.44840000 19.15540000
384 3 6.96560000 12.18980000 19.15540000
385 3 6.96560000 13.93120000 0.00000000
386 3 8.70700000 15.67260000 0.00000000
387 1 8.70700000 13.93120000 1.74140000
388 3 6.96560000 15.67260000 1.74140000
389 1 6.96560000 13.93120000 3.48280000
390 2 8.70700000 15.67260000 3.48280000
391 1 8.70700000 13.93120000 5.22420000
392 1 6.96560000 15.67260000 5.22420000
393 3 6.96560000 13.93120000 6.96560000
394 1 8.70700000 15.67260000 6.96560000
395 2 8.70700000 13.93120000 8.70700000
396 3 6.96560000 15.67260000 8.70700000
397 1 6.96560000 13.93120000 10.44840000
398 1 8.70700000 15.67260000 10.44840000
399 3 8.70700000 13.93120000 12.18980000
400 1 6.96560000 15.67260000 12.18980000
401 2 6.96560000 13.93120000 13.93120000
402 1 8.70700000 15.67260000 13.93120000
403 3 8.70700000 13.93120000 15.67260000
404 3 6.96560000 15.67260000 15.67260000
405 1 6.96560000 13.93120000 17.41400000
406 1 8.70700000 15.67260000 17.41400000
407 3 8.70700000 13.93120000 19.15540000
408 3 6.96560000 15.67260000 19.15540000
409 2 6.96560000 17.41400000 0.00000000
410 2 8.70700000 19.15540000 0.00000000
411 1 8.70700000 17.41400000 1.74140000
412 3 6.96560000 19.15540000 1.74140000
413 2 6.96560000 17.41400000 3.48280000
414 3 8.70700000 19.15540000 3.48280000
415 3 8.70700000 17.41400000 5.22420000
416 3 6.96560000 19.15540000 5.22420000
417 1 6.96560000 17.41400000 6.96560000
418 1 8.70700000 19.15540000 6.96560000
419 3 8.70700000 17.41400000 8.70700000
420 2 6.96560000 19.15540000 8.70700000
421 2 6.96560000 17.41400000 10.44840000
422 1 8.70700000 19.15540000 10.44840000
423 3 8.70700000 17.41400000 12.18980000
424 2 6.96560000 19.15540000 12.18980000
425 3 6.96560000 17.41400000 13.93120000
426 1 8.70700000 19.15540000 13.93120000
427 3 8.70700000 17.41400000 15.67260000
428 1 6.96560000 19.15540000 15.67260000
429 3 6.96560000 17.41400000 17.41400000
430 3 8.70700000 19.15540000 17.41400000
431 1 8.70700000 17.41400000 19.15540000
432 3 6.96560000 19.15540000 19.15540000
433 3 10.44840000 0.00000000 0.00000000
434 2 12.18980000 1.74140000 0.00000000
435 1 12.18980000 0.00000000 1.74140000
436 3 10.44840000 1.74140000 1.74140000
437 3 10.44840000 0.00000000 3.48280000
438 1 12.18980000 1.74140000 3.48280000
439 2 12.18980000 0.00000000 5.22420000
440 3 10.44840000 1.74140000 5.22420000
441 3 10.44840000 0.00000000 6.96560000
442 3 12.18980000 1.74140000 6.96560000
443 3 12.18980000 0.00000000 8.70700000
444 2 10.44840000 1.74140000 8.70700000
445 3 10.44840000 0.00000000 10.44840000
446 3 12.18980000 1.74140000 10.44840000
447 2 12.18980000 0.00000000 12.18980000
448 1 10.44840000 1.74140000 12.18980000
449 3 10.44840000 0.00000000 13.93120000
450 3 12.18980000 1.74140000 13.93120000
451 1 12.18980000 0.00000000 15.67260000
452 2 10.44840000 1.74140000 15.67260000
453 1 10.44840000 0.00000000 17.41400000
454 2 12.18980000 1.74140000 17.41400000
455 3 12.18980000 0.00000000 19.15540000
456 3 10.44840000 1.74140000 19.15540000
457 3 10.44840000 3.48280000 0.00000000
458 3 12.18980000 5.22420000 0.00000000
459 3 12.18980000 3.48280000 1.74140000
460 1 10.44840000 5.22420000 1.74140000
461 2 10.44840000 3.48280000 3.48280000
462 3 12.18980000 5.22420000 3.48280000
463 1 12.18980000 3.48280000 5.22420000
464 2 10.44840000 5.22420000 5.22420000
465 2 10.44840000 3.48280000 6.96560000
466 3 12.18980000 5.22420000 6.96560000
467 1 12.18980000 3.48280000 8.70700000
468 3 10.44840000 5.22420000 8.70700000
469 3 10.44840000 3.48280000 10.44840000
470 1 12.18980000 5.22420000 10.44840000
471 3 12.18980000 3.48280000 12.18980000
472 2 10.44840000 5.22420000 12.18980000
473 3 10.44840000 3.48280000 13.93120000
474 3 12.18980000 5.22420000 13.93120000
475 1 12.18980000 3.48280000 15.67260000
476 3 10.44840000 5.22420000 15.67260000
477 3 10.44840000 3.48280000 17.41400000
478 1 12.18980000 5.22420000 17.41400000
479 3 12.18980000 3.48280000 19.15540000
480 2 10.44840000 5.22420000 19.15540000
481 3 10.44840000 6.96560000 0.00000000
482 1 12.18980000 8.70700000 0.00000000
483 2 12.18980000 6.96560000 1.74140000
484 1 10.44840000 8.70700000 1.74140000
485 1 10.44840000 6.96560000 3.48280000
486 3 12.18980000 8.70700000 3.48280000
487 3 12.18980000 6.96560000 5.22420000
488 1 10.44840000 8.70700000 5.22420000
489 1 10.44840000 6.96560000 6.96560000
490 1 12.18980000 8.70700000 6.96560000
491 3 12.18980000 6.96560000 8.70700000
492 2 10.44840000 8.70700000 8.70700000
493 3 10.44840000 6.96560000 10.44840000
494 3 12.18980000 8.70700000 10.44840000
495 1 12.18980000 6.96560000 12.18980000
496 1 10.44840000 8.70700000 12.18980000
497 1 10.44840000 6.96560000 13.93120000
498 2 12.18980000 8.70700000 13.93120000
499 3 12.18980000 6.96560000 15.67260000
500 2 10.44840000 8.70700000 15.67260000
501 1 10.44840000 6.96560000 17.41400000
502 3 12.18980000 8.70700000 17.41400000
503 3 12.18980000 6.96560000 19.15540000
504 3 10.44840000 8.70700000 19.15540000
505 2 10.44840000 10.44840000 0.00000000
506 2 12.18980000 12.18980000 0.00000000
507 3 12.18980000 10.44840000 1.74140000
508 1 10.44840000 12.18980000 1.74140000
509 1 10.44840000 10.44840000 3.48280000
510 2 12.18980000 12.18980000 3.48280000
511 1 12.18980000 10.44840000 5.22420000
512 3 10.44840000 12.18980000 5.22420000
513 3 10.44840000 10.44840000 6.96560000
514 1 12.18980000 12.18980000 6.96560000
515 1 12.18980000 10.44840000 8.70700000
516 1 10.44840000 12.18980000 8.70700000
517 3 10.44840000 10.44840000 10.44840000
518 1 12.18980000 12.18980000 10.44840000
519 1 12.18980000 10.44840000 12.18980000
520 1 10.44840000 12.18980000 12.18980000
521 3 10.44840000 10.44840000 13.93120000
522 2 12.18980000 12.18980000 13.93120000
523 1 12.18980000 10.44840000 15.67260000
524 1 10.44840000 12.18980000 15.67260000
525 3 10.44840000 10.44840000 17.41400000
526 1 12.18980000 12.18980000 17.41400000
527 2 12.18980000 10.44840000 19.15540000
528 1 10.44840000 12.18980000 19.15540000
529 1 10.44840000 13.93120000 0.00000000
530 3 12.18980000 15.67260000 0.00000000
531 2 12.18980000 13.93120000 1.74140000
532 1 10.44840000 15.67260000 1.74140000
533 2 10.44840000 13.93120000 3.48280000
534 3 12.18980000 15.67260000 3.48280000
535 2 12.18980000 13.93120000 5.22420000
536 1 10.44840000 15.67260000 5.22420000
537 3 10.44840000 13.93120000 6.96560000
538 3 12.18980000 15.67260000 6.96560000
539 3 12.18980000 13.93120000 8.70700000
540 3 10.44840000 15.67260000 8.70700000
541 1 10.44840000 13.93120000 10.44840000
542 2 12.18980000 15.67260000 10.44840000
543 1 12.18980000 13.93120000 12.18980000
544 3 10.44840000 15.67260000 12.18980000
545 3 10.44840000 13.93120000 13.93120000
546 1 12.18980000 15.67260000 13.93120000
547 3 12.18980000 13.93120000 15.67260000
548 2 10.44840000 15.67260000 15.67260000
549 1 10.44840000 13.93120000 17.41400000
550 1 12.18980000 15.67260000 17.41400000
551 1 12.18980000 13.93120000 19.15540000
552 1 10.44840000 15.67260000 19.15540000
553 3 10.44840000 17.41400000 0.00000000
554 2 12.18980000 19.15540000 0.00000000
555 1 12.18980000 17.41400000 1.74140000
556 3 10.44840000 19.15540000 1.74140000
557 2 10.44840000 17.41400000 3.48280000
558 3 12.18980000 19.15540000 3.48280000
559 3 12.18980000 17.41400000 5.22420000
560 1 10.44840000 19.15540000 5.22420000
561 3 10.44840000 17.41400000 6.96560000
562 1 12.18980000 19.15540000 6.96560000
563 3 12.18980000 17.41400000 8.70700000
564 3 10.44840000 19.15540000 8.70700000
565 1 10.44840000 17.41400000 10.44840000
566 3 12.18980000 19.15540000 10.44840000
567 3 12.18980000 17.41400000 12.18980000
568 3 10.44840000 19.15540000 12.18980000
569 2 10.44840000 17.41400000 13.93120000
570 2 12.18980000 19.15540000 13.93120000
571 2 12.18980000 17.41400000 15.67260000
572 2 10.44840000 19.15540000 15.67260000
573 1 10.44840000 17.41400000 17.41400000
574 2 12.18980000 19.15540000 17.41400000
575 3 12.18980000 17.41400000 19.15540000
576 3 10.44840000 19.15540000 19.15540000
577 1 13.93120000 0.00000000 0.00000000
578 2 15.67260000 1.74140000 0.00000000
579 1 15.67260000 0.00000000 1.74140000
580 1 13.93120000 1.74140000 1.74140000
581 3 13.93120000 0.00000000 3.48280000
582 1 15.67260000 1.74140000 3.48280000
583 2 15.67260000 0.00000000 5.22420000
584 3 13.93120000 1.74140000 5.22420000
585 1 13.93120000 0.00000000 6.96560000
586 1 15.67260000 1.74140000 6.96560000
587 3 15.67260000 0.00000000 8.70700000
588 1 13.93120000 1.74140000 8.70700000
589 2 13.93120000 0.00000000 10.44840000
590 1 15.67260000 1.74140000 10.44840000
591 1 15.67260000 0.00000000 12.18980000
592 1 13.93120000 1.74140000 12.18980000
593 1 13.93120000 0.00000000 13.93120000
594 1 15.67260000 1.74140000 13.93120000
595 3 15.67260000 0.00000000 15.67260000
596 1 13.93120000 1.74140000 15.67260000
597 2 13.93120000 0.00000000 17.41400000
598 1 15.67260000 1.74140000 17.41400000
599 3 15.67260000 0.00000000 19.15540000
600 1 13.93120000 1.74140000 19.15540000
601 3 13.93120000 3.48280000 0.00000000
602 1 15.67260000 5.22420000 0.00000000
603 2 15.67260000 3.48280000 1.74140000
604 3 13.93120000 5.22420000 1.74140000
605 1 13.93120000 3.48280000 3.48280000
606 3 15.67260000 5.22420000 3.48280000
607 2 15.67260000 3.48280000 5.22420000
608 3 13.93120000 5.22420000 5.22420000
609 3 13.93120000 3.48280000 6.96560000
610 2 15.67260000 5.22420000 6.96560000
611 2 15.67260000 3.48280000 8.70700000
612 2 13.93120000 5.22420000 8.70700000
613 3 13.93120000 3.48280000 10.44840000
614 3 15.67260000 5.22420000 10.44840000
615 3 15.67260000 3.48280000 12.18980000
616 3 13.93120000 5.22420000 12.18980000
617 1 13.93120000 3.48280000 13.93120000
618 3 15.67260000 5.22420000 13.93120000
619 2 15.67260000 3.48280000 15.67260000
620 3 13.93120000 5.22420000 15.67260000
621 1 13.93120000 3.48280000 17.41400000
622 2 15.67260000 5.22420000 17.41400000
623 2 15.67260000 3.48280000 19.15540000
624 2 13.93120000 5.22420000 19.15540000
625 2 13.93120000 6.96560000 0.00000000
626 1 15.67260000 8.70700000 0.00000000
627 3 15.67260000 6.96560000 1.74140000
628 3 13.93120000 8.70700000 1.74140000
629 3 13.93120000 6.96560000 3.48280000
630 3 15.67260000 8.70700000 3.48280000
631 1 15.67260000 6.96560000 5.22420000
632 3 13.93120000 8.70700000 5.22420000
633 3 13.93120000 6.96560000 6.96560000
634 2 15.67260000 8.70700000 6.96560000
635 1 15.67260000 6.96560000 8.70700000
636 2 13.93120000 8.70700000 8.70700000
637 3 13.93120000 6.96560000 10.44840000
638 1 15.67260000 8.70700000 10.44840000
639 1 15.67260000 6.96560000 12.18980000
640 1 13.93120000 8.70700000 12.18980000
641 3 13.93120000 6.96560000 13.93120000
642 3 15.67260000 8.70700000 13.93120000
643 1 15.67260000 6.96560000 15.67260000
644 1 13.93120000 8.70700000 15.67260000
645 1 13.93120000 6.96560000 17.41400000
646 1 15.67260000 8.70700000 17.41400000
647 1 15.67260000 6.96560000 19.15540000
648 1 13.93120000 8.70700000 19.15540000
649 3 13.93120000 10.44840000 0.00000000
650 1 15.67260000 12.18980000 0.00000000
651 1 15.67260000 10.44840000 1.74140000
652 3 13.93120000 12.18980000 1.74140000
653 3 13.93120000 10.44840000 3.48280000
654 1 15.67260000 12.18980000 3.48280000
655 1 15.67260000 10.44840000 5.22420000
656 1 13.93120000 12.18980000 5.22420000
657 1 13.93120000 10.44840000 6.96560000
658 3 15.67260000 12.18980000 6.96560000
659 1 15.67260000 10.44840000 8.70700000
660 1 13.93120000 12.18980000 8.70700000
661 3 13.93120000 10.44840000 10.44840000
662 1 15.67260000 12.18980000 10.44840000
663 3 15.67260000 10.44840000 12.18980000
664 1 13.93120000 12.18980000 12.18980000
665 1 13.93120000 10.44840000 13.93120000
666 3 15.67260000 12.18980000 13.93120000
667 3 15.67260000 10.44840000 15.67260000
668 1 13.93120000 12.18980000 15.67260000
669 3 13.93120000 10.44840000 17.41400000
670 1 15.67260000 12.18980000 17.41400000
671 1 15.67260000 10.44840000 19.15540000
672 3 13.93120000 12.18980000 19.15540000
673 3 13.93120000 13.93120000 0.00000000
674 3 15.67260000 15.67260000 0.00000000
675 2 15.67260000 13.93120000 1.74140000
676 3 13.93120000 15.67260000 1.74140000
677 2 13.93120000 13.93120000 3.48280000
678 3 15.67260000 15.67260000 3.48280000
679 3 15.67260000 13.93120000 5.22420000
680 2 13.93120000 15.67260000 5.22420000
681 1 13.93120000 13.93120000 6.96560000
682 1 15.67260000 15.67260000 6.96560000
683 1 15.67260000 13.93120000 8.70700000
684 2 13.93120000 15.67260000 8.70700000
685 3 13.93120000 13.93120000 10.44840000
686 2 15.67260000 15.67260000 10.44840000
687 1 15.67260000 13.93120000 12.18980000
688 1 13.93120000 15.67260000 12.18980000
689 3 13.93120000 13.93120000 13.93120000
690 2 15.67260000 15.67260000 13.93120000
691 1 15.67260000 13.93120000 15.67260000
692 3 13.93120000 15.67260000 15.67260000
693 2 13.93120000 13.93120000 17.41400000
694 2 15.67260000 15.67260000 17.41400000
695 2 15.67260000 13.93120000 19.15540000
696 3 13.93120000 15.67260000 19.15540000
697 3 13.93120000 17.41400000 0.00000000
698 1 15.67260000 19.15540000 0.00000000
699 2 15.67260000 17.41400000 1.74140000
700 3 13.93120000 19.15540000 1.74140000
701 2 13.93120000 17.41400000 3.48280000
702 3 15.67260000 19.15540000 3.48280000
703 3 15.67260000 17.41400000 5.22420000
704 1 13.93120000 19.15540000 5.22420000
705 1 13.93120000 17.41400000 6.96560000
706 3 15.67260000 19.15540000 6.96560000
707 3 15.67260000 17.41400000 8.70700000
708 1 13.93120000 19.15540000 8.70700000
709 3 13.93120000 17.41400000 10.44840000
710 1 15.67260000 19.15540000 10.44840000
711 2 15.67260000 17.41400000 12.18980000
712 3 13.93120000 19.15540000 12.18980000
713 3 13.93120000 17.41400000 13.93120000
714 3 15.67260000 19.15540000 13.93120000
715 2 15.67260000 17.41400000 15.67260000
716 1 13.93120000 19.15540000 15.67260000
717 1 13.93120000 17.41400000 17.41400000
718 1 15.67260000 19.15540000 17.41400000
719 3 15.67260000 17.41400000 19.15540000
720 1 13.93120000 19.15540000 19.15540000
721 1 17.41400000 0.00000000 0.00000000
722 1 19.15540000 1.74140000 0.00000000
723 1 19.15540000 0.00000000 1.74140000
724 1 17.41400000 1.74140000 1.74140000
725 2 17.41400000 0.00000000 3.48280000
726 2 19.15540000 1.74140000 3.48280000
727 3 19.15540000 0.00000000 5.22420000
728 2 17.41400000 1.74140000 5.22420000
729 2 17.41400000 0.00000000 6.96560000
730 3 19.15540000 1.74140000 6.96560000
731 3 19.15540000 0.00000000 8.70700000
732 3 17.41400000 1.74140000 8.70700000
733 2 17.41400000 0.00000000 10.44840000
734 2 19.15540000 1.74140000 10.44840000
735 1 19.15540000 0.00000000 12.18980000
736 3 17.41400000 1.74140000 12.18980000
737 3 17.41400000 0.00000000 13.93120000