# FCC structure - OPTIMIZED (smaller supercell)
# Composition: {'Al': 0.33, 'Co': 0.34, 'Cr': 0.33}
# Al-Cr-Co System (Group 1) - Assignment 2 - MM309

864 atoms
3 atom types

0.0 20.96106000 xlo xhi
0.0 20.96106000 ylo yhi
0.0 20.96106000 zlo zhi

Masses

1 26.9815  # Al
2 58.9332  # Co
3 51.9961  # Cr

Atoms # atomic

1 3 0.00000000 0.00000000 0.00000000
2 3 1.74675500 1.74675500 0.00000000
3 1 1.74675500 0.00000000 1.74675500
4 2 0.00000000 1.74675500 1.74675500
5 2 0.00000000 0.00000000 3.49351000
6 3 1.74675500 1.74675500 3.49351000
7 1 1.74675500 0.00000000 5.24026500
8 1 0.00000000 1.74675500 5.24026500
9 2 0.00000000 0.00000000 6.98702000
10 2 1.74675500 1.74675500 6.98702000
11 2 1.74675500 0.00000000 8.73377500
12 1 0.00000000 1.74675500 8.73377500
13 3 0.00000000 0.00000000 10.48053000
14 2 1.74675500 1.74675500 10.48053000
15 3 1.74675500 0.00000000 12.22728500
16 1 0.00000000 1.74675500 12.22728500
17 3 0.00000000 0.00000000 13.97404000
18 1 1.74675500 1.74675500 13.97404000
19 3 1.74675500 0.00000000 15.72079500
20 2 0.00000000 1.74675500 15.72079500
21 3 0.00000000 0.00000000 17.46755000
22 3 1.74675500 1.74675500 17.46755000
23 1 1.74675500 0.00000000 19.21430500
24 1 0.00000000 1.74675500 19.21430500
25 3 0.00000000 3.49351000 0.00000000
26 3 1.74675500 5.24026500 0.00000000
27 2 1.74675500 3.49351000 1.74675500
28 1 0.00000000 5.24026500 1.74675500
29 1 0.00000000 3.49351000 3.49351000
30 1 1.74675500 5.24026500 3.49351000
31 3 1.74675500 3.49351000 5.24026500
32 2 0.00000000 5.24026500 5.24026500
33 1 0.00000000 3.49351000 6.98702000
34 2 1.74675500 5.24026500 6.98702000
35 2 1.74675500 3.49351000 8.73377500
36 3 0.00000000 5.24026500 8.73377500
37 2 0.00000000 3.49351000 10.48053000
38 2 1.74675500 5.24026500 10.48053000
39 1 1.74675500 3.49351000 12.22728500
40 3 0.00000000 5.24026500 12.22728500
41 2 0.00000000 3.49351000 13.97404000
42 2 1.74675500 5.24026500 13.97404000
43 3 1.74675500 3.49351000 15.72079500
44 1 0.00000000 5.24026500 15.72079500
45 3 0.00000000 3.49351000 17.46755000
46 2 1.74675500 5.24026500 17.46755000
47 2 1.74675500 3.49351000 19.21430500
48 1 0.00000000 5.24026500 19.21430500
49 2 0.00000000 6.98702000 0.00000000
50 1 1.74675500 8.73377500 0.00000000
51 3 1.74675500 6.98702000 1.74675500
52 2 0.00000000 8.73377500 1.74675500
53 2 0.00000000 6.98702000 3.49351000
54 3 1.74675500 8.73377500 3.49351000
55 2 1.74675500 6.98702000 5.24026500
56 3 0.00000000 8.73377500 5.24026500
57 2 0.00000000 6.98702000 6.98702000
58 2 1.74675500 8.73377500 6.98702000
59 3 1.74675500 6.98702000 8.73377500
60 1 0.00000000 8.73377500 8.73377500
61 1 0.00000000 6.98702000 10.48053000
62 1 1.74675500 8.73377500 10.48053000
63 2 1.74675500 6.98702000 12.22728500
64 2 0.00000000 8.73377500 12.22728500
65 2 0.00000000 6.98702000 13.97404000
66 3 1.74675500 8.73377500 13.97404000
67 3 1.74675500 6.98702000 15.72079500
68 1 0.00000000 8.73377500 15.72079500
69 2 0.00000000 6.98702000 17.46755000
70 1 1.74675500 8.73377500 17.46755000
71 2 1.74675500 6.98702000 19.21430500
72 2 0.00000000 8.73377500 19.21430500
73 1 0.00000000 10.48053000 0.00000000
74 1 1.74675500 12.22728500 0.00000000
75 3 1.74675500 10.48053000 1.74675500
76 3 0.00000000 12.22728500 1.74675500
77 2 0.00000000 10.48053000 3.49351000
78 2 1.74675500 12.22728500 3.49351000
79 2 1.74675500 10.48053000 5.24026500
80 1 0.00000000 12.22728500 5.24026500
81 3 0.00000000 10.48053000 6.98702000
82 3 1.74675500 12.22728500 6.98702000
83 2 1.74675500 10.48053000 8.73377500
84 2 0.00000000 12.22728500 8.73377500
85 1 0.00000000 10.48053000 10.48053000
86 2 1.74675500 12.22728500 10.48053000
87 2 1.74675500 10.48053000 12.22728500
88 1 0.00000000 12.22728500 12.22728500
89 3 0.00000000 10.48053000 13.97404000
90 3 1.74675500 12.22728500 13.97404000
91 2 1.74675500 10.48053000 15.72079500
92 2 0.00000000 12.22728500 15.72079500
93 1 0.00000000 10.48053000 17.46755000
94 3 1.74675500 12.22728500 17.46755000
95 2 1.74675500 10.48053000 19.21430500
96 1 0.00000000 12.22728500 19.21430500
97 1 0.00000000 13.97404000 0.00000000
98 1 1.74675500 15.72079500 0.00000000
99 3 1.74675500 13.97404000 1.74675500
100 1 0.00000000 15.72079500 1.74675500
101 2 0.00000000 13.97404000 3.49351000
102 1 1.74675500 15.72079500 3.49351000
103 1 1.74675500 13.97404000 5.24026500
104 1 0.00000000 15.72079500 5.24026500
105 3 0.00000000 13.97404000 6.98702000
106 3 1.74675500 15.72079500 6.98702000
107 1 1.74675500 13.97404000 8.73377500
108 1 0.00000000 15.72079500 8.73377500
109 3 0.00000000 13.97404000 10.48053000
110 1 1.74675500 15.72079500 10.48053000
111 3 1.74675500 13.97404000 12.22728500
112 2 0.00000000 15.72079500 12.22728500
113 1 0.00000000 13.97404000 13.97404000
114 1 1.74675500 15.72079500 13.97404000
115 3 1.74675500 13.97404000 15.72079500
116 1 0.00000000 15.72079500 15.72079500
117 2 0.00000000 13.97404000 17.46755000
118 2 1.74675500 15.72079500 17.46755000
119 3 1.74675500 13.97404000 19.21430500
120 1 0.00000000 15.72079500 19.21430500
121 2 0.00000000 17.46755000 0.00000000
122 1 1.74675500 19.21430500 0.00000000
123 3 1.74675500 17.46755000 1.74675500
124 1 0.00000000 19.21430500 1.74675500
125 2 0.00000000 17.46755000 3.49351000
126 3 1.74675500 19.21430500 3.49351000
127 1 1.74675500 17.46755000 5.24026500
128 2 0.00000000 19.21430500 5.24026500
129 2 0.00000000 17.46755000 6.98702000
130 3 1.74675500 19.21430500 6.98702000
131 2 1.74675500 17.46755000 8.73377500
132 2 0.00000000 19.21430500 8.73377500
133 1 0.00000000 17.46755000 10.48053000
134 1 1.74675500 19.21430500 10.48053000
135 3 1.74675500 17.46755000 12.22728500
136 2 0.00000000 19.21430500 12.22728500
137 2 0.00000000 17.46755000 13.97404000
138 1 1.74675500 19.21430500 13.97404000
139 1 1.74675500 17.46755000 15.72079500
140 1 0.00000000 19.21430500 15.72079500
141 3 0.00000000 17.46755000 17.46755000
142 1 1.74675500 19.21430500 17.46755000
143 1 1.74675500 17.46755000 19.21430500
144 3 0.00000000 19.21430500 19.21430500
145 1 3.49351000 0.00000000 0.00000000
146 1 5.24026500 1.74675500 0.00000000
147 2 5.24026500 0.00000000 1.74675500
148 1 3.49351000 1.74675500 1.74675500
149 2 3.49351000 0.00000000 3.49351000
150 3 5.24026500 1.74675500 3.49351000
151 2 5.24026500 0.00000000 5.24026500
152 2 3.49351000 1.74675500 5.24026500
153 1 3.49351000 0.00000000 6.98702000
154 3 5.24026500 1.74675500 6.98702000
155 2 5.24026500 0.00000000 8.73377500
156 1 3.49351000 1.74675500 8.73377500
157 3 3.49351000 0.00000000 10.48053000
158 1 5.24026500 1.74675500 10.48053000
159 1 5.24026500 0.00000000 12.22728500
160 1 3.49351000 1.74675500 12.22728500
161 3 3.49351000 0.00000000 13.97404000
162 1 5.24026500 1.74675500 13.97404000
163 2 5.24026500 0.00000000 15.72079500
164 1 3.49351000 1.74675500 15.72079500
165 3 3.49351000 0.00000000 17.46755000
166 3 5.24026500 1.74675500 17.46755000
167 2 5.24026500 0.00000000 19.21430500
168 2 3.49351000 1.74675500 19.21430500
169 1 3.49351000 3.49351000 0.00000000
170 2 5.24026500 5.24026500 0.00000000
171 2 5.24026500 3.49351000 1.74675500
172 1 3.49351000 5.24026500 1.74675500
173 1 3.49351000 3.49351000 3.49351000
174 1 5.24026500 5.24026500 3.49351000
175 3 5.24026500 3.49351000 5.24026500
176 2 3.49351000 5.24026500 5.24026500
177 1 3.49351000 3.49351000 6.98702000
178 2 5.24026500 5.24026500 6.98702000
179 3 5.24026500 3.49351000 8.73377500
180 3 3.49351000 5.24026500 8.73377500
181 2 3.49351000 3.49351000 10.48053000
182 2 5.24026500 5.24026500 10.48053000
183 1 5.24026500 3.49351000 12.22728500
184 3 3.49351000 5.24026500 12.22728500
185 3 3.49351000 3.49351000 13.97404000
186 2 5.24026500 5.24026500 13.97404000
187 1 5.24026500 3.49351000 15.72079500
188 2 3.49351000 5.24026500 15.72079500
189 3 3.49351000 3.49351000 17.46755000
190 3 5.24026500 5.24026500 17.46755000
191 1 5.24026500 3.49351000 19.21430500
192 3 3.49351000 5.24026500 19.21430500
193 1 3.49351000 6.98702000 0.00000000
194 2 5.24026500 8.73377500 0.00000000
195 3 5.24026500 6.98702000 1.74675500
196 1 3.49351000 8.73377500 1.74675500
197 3 3.49351000 6.98702000 3.49351000
198 2 5.24026500 8.73377500 3.49351000
199 1 5.24026500 6.98702000 5.24026500
200 3 3.49351000 8.73377500 5.24026500
201 2 3.49351000 6.98702000 6.98702000
202 3 5.24026500 8.73377500 6.98702000
203 2 5.24026500 6.98702000 8.73377500
204 1 3.49351000 8.73377500 8.73377500
205 2 3.49351000 6.98702000 10.48053000
206 3 5.24026500 8.73377500 10.48053000
207 1 5.24026500 6.98702000 12.22728500
208 3 3.49351000 8.73377500 12.22728500
209 2 3.49351000 6.98702000 13.97404000
210 1 5.24026500 8.73377500 13.97404000
211 1 5.24026500 6.98702000 15.72079500
212 3 3.49351000 8.73377500 15.72079500
213 2 3.49351000 6.98702000 17.46755000
214 2 5.24026500 8.73377500 17.46755000
215 1 5.24026500 6.98702000 19.21430500
216 3 3.49351000 8.73377500 19.21430500
217 2 3.49351000 10.48053000 0.00000000
218 3 5.24026500 12.22728500 0.00000000
219 1 5.24026500 10.48053000 1.74675500
220 3 3.49351000 12.22728500 1.74675500
221 2 3.49351000 10.48053000 3.49351000
222 1 5.24026500 12.22728500 3.49351000
223 1 5.24026500 10.48053000 5.24026500
224 2 3.49351000 12.22728500 5.24026500
225 2 3.49351000 10.48053000 6.98702000
226 2 5.24026500 12.22728500 6.98702000
227 3 5.24026500 10.48053000 8.73377500
228 1 3.49351000 12.22728500 8.73377500
229 1 3.49351000 10.48053000 10.48053000
230 2 5.24026500 12.22728500 10.48053000
231 1 5.24026500 10.48053000 12.22728500
232 2 3.49351000 12.22728500 12.22728500
233 1 3.49351000 10.48053000 13.97404000
234 1 5.24026500 12.22728500 13.97404000
235 1 5.24026500 10.48053000 15.72079500
236 1 3.49351000 12.22728500 15.72079500
237 2 3.49351000 10.48053000 17.46755000
238 2 5.24026500 12.22728500 17.46755000
239 2 5.24026500 10.48053000 19.21430500
240 2 3.49351000 12.22728500 19.21430500
241 1 3.49351000 13.97404000 0.00000000
242 3 5.24026500 15.72079500 0.00000000
243 3 5.24026500 13.97404000 1.74675500
244 1 3.49351000 15.72079500 1.74675500
245 3 3.49351000 13.97404000 3.49351000
246 1 5.24026500 15.72079500 3.49351000
247 1 5.24026500 13.97404000 5.24026500
248 3 3.49351000 15.72079500 5.24026500
249 2 3.49351000 13.97404000 6.98702000
250 2 5.24026500 15.72079500 6.98702000
251 2 5.24026500 13.97404000 8.73377500
252 1 3.49351000 15.72079500 8.73377500
253 2 3.49351000 13.97404000 10.48053000
254 1 5.24026500 15.72079500 10.48053000
255 2 5.24026500 13.97404000 12.22728500
256 2 3.49351000 15.72079500 12.22728500
257 3 3.49351000 13.97404000 13.97404000
258 1 5.24026500 15.72079500 13.97404000
259 2 5.24026500 13.97404000 15.72079500
260 2 3.49351000 15.72079500 15.72079500
261 3 3.49351000 13.97404000 17.46755000
262 1 5.24026500 15.72079500 17.46755000
263 1 5.24026500 13.97404000 19.21430500
264 1 3.49351000 15.72079500 19.21430500
265 3 3.49351000 17.46755000 0.00000000
266 3 5.24026500 19.21430500 0.00000000
267 1 5.24026500 17.46755000 1.74675500
268 3 3.49351000 19.21430500 1.74675500
269 3 3.49351000 17.46755000 3.49351000
270 2 5.24026500 19.21430500 3.49351000
271 1 5.24026500 17.46755000 5.24026500
272 3 3.49351000 19.21430500 5.24026500
273 3 3.49351000 17.46755000 6.98702000
274 2 5.24026500 19.21430500 6.98702000
275 1 5.24026500 17.46755000 8.73377500
276 3 3.49351000 19.21430500 8.73377500
277 2 3.49351000 17.46755000 10.48053000
278 2 5.24026500 19.21430500 10.48053000
279 1 5.24026500 17.46755000 12.22728500
280 3 3.49351000 19.21430500 12.22728500
281 1 3.49351000 17.46755000 13.97404000
282 2 5.24026500 19.21430500 13.97404000
283 1 5.24026500 17.46755000 15.72079500
284 3 3.49351000 19.21430500 15.72079500
285 3 3.49351000 17.46755000 17.46755000
286 2 5.24026500 19.21430500 17.46755000
287 3 5.24026500 17.46755000 19.21430500
288 1 3.49351000 19.21430500 19.21430500
289 2 6.98702000 0.00000000 0.00000000
290 3 8.73377500 1.74675500 0.00000000
291 2 8.73377500 0.00000000 1.74675500
292 2 6.98702000 1.74675500 1.74675500
293 2 6.98702000 0.00000000 3.49351000
294 3 8.73377500 1.74675500 3.49351000
295 1 8.73377500 0.00000000 5.24026500
296 2 6.98702000 1.74675500 5.24026500
297 1 6.98702000 0.00000000 6.98702000
298 1 8.73377500 1.74675500 6.98702000
299 1 8.73377500 0.00000000 8.73377500
300 2 6.98702000 1.74675500 8.73377500
301 3 6.98702000 0.00000000 10.48053000
302 3 8.73377500 1.74675500 10.48053000
303 1 8.73377500 0.00000000 12.22728500
304 1 6.98702000 1.74675500 12.22728500
305 3 6.98702000 0.00000000 13.97404000
306 2 8.73377500 1.74675500 13.97404000
307 2 8.73377500 0.00000000 15.72079500
308 3 6.98702000 1.74675500 15.72079500
309 2 6.98702000 0.00000000 17.46755000
310 3 8.73377500 1.74675500 17.46755000
311 3 8.73377500 0.00000000 19.21430500
312 3 6.98702000 1.74675500 19.21430500
313 1 6.98702000 3.49351000 0.00000000
314 1 8.73377500 5.24026500 0.00000000
315 1 8.73377500 3.49351000 1.74675500
316 1 6.98702000 5.24026500 1.74675500
317 1 6.98702000 3.49351000 3.49351000
318 1 8.73377500 5.24026500 3.49351000
319 1 8.73377500 3.49351000 5.24026500
320 3 6.98702000 5.24026500 5.24026500
321 3 6.98702000 3.49351000 6.98702000
322 2 8.73377500 5.24026500 6.98702000
323 3 8.73377500 3.49351000 8.73377500
324 1 6.98702000 5.24026500 8.73377500
325 2 6.98702000 3.49351000 10.48053000
326 2 8.73377500 5.24026500 10.48053000
327 2 8.73377500 3.49351000 12.22728500
328 3 6.98702000 5.24026500 12.22728500
329 2 6.98702000 3.49351000 13.97404000
330 2 8.73377500 5.24026500 13.97404000
331 3 8.73377500 3.49351000 15.72079500
332 1 6.98702000 5.24026500 15.72079500
333 3 6.98702000 3.49351000 17.46755000
334 3 8.73377500 5.24026500 17.46755000
335 1 8.73377500 3.49351000 19.21430500
336 3 6.98702000 5.24026500 19.21430500
337 1 6.98702000 6.98702000 0.00000000
338 2 8.73377500 8.73377500 0.00000000
339 3 8.73377500 6.98702000 1.74675500
340 3 6.98702000 8.73377500 1.74675500
341 3 6.98702000 6.98702000 3.49351000
342 2 8.73377500 8.73377500 3.49351000
343 1 8.73377500 6.98702000 5.24026500
344 3 6.98702000 8.73377500 5.24026500
345 1 6.98702000 6.98702000 6.98702000
346 2 8.73377500 8.73377500 6.98702000
347 1 8.73377500 6.98702000 8.73377500
348 2 6.98702000 8.73377500 8.73377500
349 1 6.98702000 6.98702000 10.48053000
350 1 8.73377500 8.73377500 10.48053000
351 1 8.73377500 6.98702000 12.22728500
352 1 6.98702000 8.73377500 12.22728500
353 2 6.98702000 6.98702000 13.97404000
354 1 8.73377500 8.73377500 13.97404000
355 3 8.73377500 6.98702000 15.72079500
356 2 6.98702000 8.73377500 15.72079500
357 1 6.98702000 6.98702000 17.46755000
358 3 8.73377500 8.73377500 17.46755000
359 2 8.73377500 6.98702000 19.21430500
360 2 6.98702000 8.73377500 19.21430500
361 1 6.98702000 10.48053000 0.00000000
362 1 8.73377500 12.22728500 0.00000000
363 3 8.73377500 10.48053000 1.74675500
364 2 6.98702000 12.22728500 1.74675500
365 3 6.98702000 10.48053000 3.49351000
366 2 8.73377500 12.22728500 3.49351000
367 2 8.73377500 10.48053000 5.24026500
368 1 6.98702000 12.22728500 5.24026500
369 2 6.98702000 10.48053000 6.98702000
370 1 8.73377500 12.22728500 6.98702000
371 1 8.73377500 10.48053000 8.73377500
372 2 6.98702000 12.22728500 8.73377500
373 3 6.98702000 10.48053000 10.48053000
374 2 8.73377500 12.22728500 10.48053000
375 2 8.73377500 10.48053000 12.22728500
376 2 6.98702000 12.22728500 12.22728500
377 3 6.98702000 10.48053000 13.97404000
378 1 8.73377500 12.22728500 13.97404000
379 2 8.73377500 10.48053000 15.72079500
380 2 6.98702000 12.22728500 15.72079500
381 1 6.98702000 10.48053000 17.46755000
382 2 8.73377500 12.22728500 17.46755000
383 3 8.73377500 10.48053000 19.21430500
384 2 6.98702000 12.22728500 19.21430500
385 3 6.98702000 13.97404000 0.00000000
386 3 8.73377500 15.72079500 0.00000000
387 2 8.73377500 13.97404000 1.74675500
388 1 6.98702000 15.72079500 1.74675500
389 2 6.98702000 13.97404000 3.49351000
390 2 8.73377500 15.72079500 3.49351000
391 2 8.73377500 13.97404000 5.24026500
392 3 6.98702000 15.72079500 5.24026500
393 1 6.98702000 13.97404000 6.98702000
394 1 8.73377500 15.72079500 6.98702000
395 2 8.73377500 13.97404000 8.73377500
396 2 6.98702000 15.72079500 8.73377500
397 2 6.98702000 13.97404000 10.48053000
398 3 8.73377500 15.72079500 10.48053000
399 2 8.73377500 13.97404000 12.22728500
400 2 6.98702000 15.72079500 12.22728500
401 2 6.98702000 13.97404000 13.97404000
402 1 8.73377500 15.72079500 13.97404000
403 1 8.73377500 13.97404000 15.72079500
404 1 6.98702000 15.72079500 15.72079500
405 1 6.98702000 13.97404000 17.46755000
406 3 8.73377500 15.72079500 17.46755000
407 1 8.73377500 13.97404000 19.21430500
408 1 6.98702000 15.72079500 19.21430500
409 3 6.98702000 17.46755000 0.00000000
410 1 8.73377500 19.21430500 0.00000000
411 2 8.73377500 17.46755000 1.74675500
412 2 6.98702000 19.21430500 1.74675500
413 2 6.98702000 17.46755000 3.49351000
414 1 8.73377500 19.21430500 3.49351000
415 2 8.73377500 17.46755000 5.24026500
416 2 6.98702000 19.21430500 5.24026500
417 2 6.98702000 17.46755000 6.98702000
418 2 8.73377500 19.21430500 6.98702000
419 1 8.73377500 17.46755000 8.73377500
420 1 6.98702000 19.21430500 8.73377500
421 1 6.98702000 17.46755000 10.48053000
422 3 8.73377500 19.21430500 10.48053000
423 3 8.73377500 17.46755000 12.22728500
424 1 6.98702000 19.21430500 12.22728500
425 3 6.98702000 17.46755000 13.97404000
426 1 8.73377500 19.21430500 13.97404000
427 2 8.73377500 17.46755000 15.72079500
428 3 6.98702000 19.21430500 15.72079500
429 3 6.98702000 17.46755000 17.46755000
430 2 8.73377500 19.21430500 17.46755000
431 2 8.73377500 17.46755000 19.21430500
432 3 6.98702000 19.21430500 19.21430500
433 1 10.48053000 0.00000000 0.00000000
434 1 12.22728500 1.74675500 0.00000000
435 1 12.22728500 0.00000000 1.74675500
436 2 10.48053000 1.74675500 1.74675500
437 3 10.48053000 0.00000000 3.49351000
438 2 12.22728500 1.74675500 3.49351000
439 2 12.22728500 0.00000000 5.24026500
440 2 10.48053000 1.74675500 5.24026500
441 2 10.48053000 0.00000000 6.98702000
442 1 12.22728500 1.74675500 6.98702000
443 2 12.22728500 0.00000000 8.73377500
444 3 10.48053000 1.74675500 8.73377500
445 2 10.48053000 0.00000000 10.48053000
446 3 12.22728500 1.74675500 10.48053000
447 2 12.22728500 0.00000000 12.22728500
448 1 10.48053000 1.74675500 12.22728500
449 2 10.48053000 0.00000000 13.97404000
450 1 12.22728500 1.74675500 13.97404000
451 1 12.22728500 0.00000000 15.72079500
452 3 10.48053000 1.74675500 15.72079500
453 2 10.48053000 0.00000000 17.46755000
454 3 12.22728500 1.74675500 17.46755000
455 3 12.22728500 0.00000000 19.21430500
456 2 10.48053000 1.74675500 19.21430500
457 3 10.48053000 3.49351000 0.00000000
458 2 12.22728500 5.24026500 0.00000000
459 2 12.22728500 3.49351000 1.74675500
460 2 10.48053000 5.24026500 1.74675500
461 1 10.48053000 3.49351000 3.49351000
462 1 12.22728500 5.24026500 3.49351000
463 3 12.22728500 3.49351000 5.24026500
464 3 10.48053000 5.24026500 5.24026500
465 1 10.48053000 3.49351000 6.98702000
466 1 12.22728500 5.24026500 6.98702000
467 3 12.22728500 3.49351000 8.73377500
468 3 10.48053000 5.24026500 8.73377500
469 1 10.48053000 3.49351000 10.48053000
470 1 12.22728500 5.24026500 10.48053000
471 2 12.22728500 3.49351000 12.22728500
472 1 10.48053000 5.24026500 12.22728500
473 1 10.48053000 3.49351000 13.97404000
474 2 12.22728500 5.24026500 13.97404000
475 1 12.22728500 3.49351000 15.72079500
476 2 10.48053000 5.24026500 15.72079500
477 3 10.48053000 3.49351000 17.46755000
478 3 12.22728500 5.24026500 17.46755000
479 3 12.22728500 3.49351000 19.21430500
480 3 10.48053000 5.24026500 19.21430500
481 3 10.48053000 6.98702000 0.00000000
482 1 12.22728500 8.73377500 0.00000000
483 3 12.22728500 6.98702000 1.74675500
484 1 10.48053000 8.73377500 1.74675500
485 2 10.48053000 6.98702000 3.49351000
486 1 12.22728500 8.73377500 3.49351000
487 3 12.22728500 6.98702000 5.24026500
488 1 10.48053000 8.73377500 5.24026500
489 3 10.48053000 6.98702000 6.98702000
490 3 12.22728500 8.73377500 6.98702000
491 2 12.22728500 6.98702000 8.73377500
492 1 10.48053000 8.73377500 8.73377500
493 1 10.48053000 6.98702000 10.48053000
494 1 12.22728500 8.73377500 10.48053000
495 1 12.22728500 6.98702000 12.22728500
496 2 10.48053000 8.73377500 12.22728500
497 1 10.48053000 6.98702000 13.97404000
498 2 12.22728500 8.73377500 13.97404000
499 3 12.22728500 6.98702000 15.72079500
500 1 10.48053000 8.73377500 15.72079500
501 2 10.48053000 6.98702000 17.46755000
502 1 12.22728500 8.73377500 17.46755000
503 3 12.22728500 6.98702000 19.21430500
504 1 10.48053000 8.73377500 19.21430500
505 3 10.48053000 10.48053000 0.00000000
506 1 12.22728500 12.22728500 0.00000000
507 3 12.22728500 10.48053000 1.74675500
508 2 10.48053000 12.22728500 1.74675500
509 2 10.48053000 10.48053000 3.49351000
510 3 12.22728500 12.22728500 3.49351000
511 1 12.22728500 10.48053000 5.24026500
512 2 10.48053000 12.22728500 5.24026500
513 1 10.48053000 10.48053000 6.98702000
514 3 12.22728500 12.22728500 6.98702000
515 3 12.22728500 10.48053000 8.73377500
516 1 10.48053000 12.22728500 8.73377500
517 3 10.48053000 10.48053000 10.48053000
518 3 12.22728500 12.22728500 10.48053000
519 3 12.22728500 10.48053000 12.22728500
520 2 10.48053000 12.22728500 12.22728500
521 1 10.48053000 10.48053000 13.97404000
522 3 12.22728500 12.22728500 13.97404000
523 3 12.22728500 10.48053000 15.72079500
524 2 10.48053000 12.22728500 15.72079500
525 2 10.48053000 10.48053000 17.46755000
526 3 12.22728500 12.22728500 17.46755000
527 2 12.22728500 10.48053000 19.21430500
528 2 10.48053000 12.22728500 19.21430500
529 1 10.48053000 13.97404000 0.00000000
530 3 12.22728500 15.72079500 0.00000000
531 2 12.22728500 13.97404000 1.74675500
532 1 10.48053000 15.72079500 1.74675500
533 3 10.48053000 13.97404000 3.49351000
534 2 12.22728500 15.72079500 3.49351000
535 3 12.22728500 13.97404000 5.24026500
536 2 10.48053000 15.72079500 5.24026500
537 3 10.48053000 13.97404000 6.98702000
538 3 12.22728500 15.72079500 6.98702000
539 1 12.22728500 13.97404000 8.73377500
540 2 10.48053000 15.72079500 8.73377500
541 1 10.48053000 13.97404000 10.48053000
542 2 12.22728500 15.72079500 10.48053000
543 1 12.22728500 13.97404000 12.22728500
544 3 10.48053000 15.72079500 12.22728500
545 1 10.48053000 13.97404000 13.97404000
546 3 12.22728500 15.72079500 13.97404000
547 2 12.22728500 13.97404000 15.72079500
548 1 10.48053000 15.72079500 15.72079500
549 1 10.48053000 13.97404000 17.46755000
550 1 12.22728500 15.72079500 17.46755000
551 2 12.22728500 13.97404000 19.21430500
552 2 10.48053000 15.72079500 19.21430500
553 1 10.48053000 17.46755000 0.00000000
554 2 12.22728500 19.21430500 0.00000000
555 2 12.22728500 17.46755000 1.74675500
556 3 10.48053000 19.21430500 1.74675500
557 2 10.48053000 17.46755000 3.49351000
558 1 12.22728500 19.21430500 3.49351000
559 1 12.22728500 17.46755000 5.24026500
560 2 10.48053000 19.21430500 5.24026500
561 2 10.48053000 17.46755000 6.98702000
562 3 12.22728500 19.21430500 6.98702000
563 1 12.22728500 17.46755000 8.73377500
564 3 10.48053000 19.21430500 8.73377500
565 1 10.48053000 17.46755000 10.48053000
566 2 12.22728500 19.21430500 10.48053000
567 2 12.22728500 17.46755000 12.22728500
568 2 10.48053000 19.21430500 12.22728500
569 2 10.48053000 17.46755000 13.97404000
570 3 12.22728500 19.21430500 13.97404000
571 3 12.22728500 17.46755000 15.72079500
572 2 10.48053000 19.21430500 15.72079500
573 3 10.48053000 17.46755000 17.46755000
574 3 12.22728500 19.21430500 17.46755000
575 3 12.22728500 17.46755000 19.21430500
576 3 10.48053000 19.21430500 19.21430500
577 1 13.97404000 0.00000000 0.00000000
578 3 15.72079500 1.74675500 0.00000000
579 1 15.72079500 0.00000000 1.74675500
580 3 13.97404000 1.74675500 1.74675500
581 3 13.97404000 0.00000000 3.49351000
582 3 15.72079500 1.74675500 3.49351000
583 3 15.72079500 0.00000000 5.24026500
584 2 13.97404000 1.74675500 5.24026500
585 2 13.97404000 0.00000000 6.98702000
586 3 15.72079500 1.74675500 6.98702000
587 1 15.72079500 0.00000000 8.73377500
588 3 13.97404000 1.74675500 8.73377500
589 3 13.97404000 0.00000000 10.48053000
590 1 15.72079500 1.74675500 10.48053000
591 3 15.72079500 0.00000000 12.22728500
592 3 13.97404000 1.74675500 12.22728500
593 2 13.97404000 0.00000000 13.97404000
594 2 15.72079500 1.74675500 13.97404000
595 2 15.72079500 0.00000000 15.72079500
596 1 13.97404000 1.74675500 15.72079500
597 2 13.97404000 0.00000000 17.46755000
598 2 15.72079500 1.74675500 17.46755000
599 3 15.72079500 0.00000000 19.21430500
600 2 13.97404000 1.74675500 19.21430500
601 2 13.97404000 3.49351000 0.00000000
602 2 15.72079500 5.24026500 0.00000000
603 3 15.72079500 3.49351000 1.74675500
604 3 13.97404000 5.24026500 1.74675500
605 3 13.97404000 3.49351000 3.49351000
606 1 15.72079500 5.24026500 3.49351000
607 1 15.72079500 3.49351000 5.24026500
608 3 13.97404000 5.24026500 5.24026500
609 2 13.97404000 3.49351000 6.98702000
610 1 15.72079500 5.24026500 6.98702000
611 3 15.72079500 3.49351000 8.73377500
612 1 13.97404000 5.24026500 8.73377500
613 1 13.97404000 3.49351000 10.48053000
614 3 15.72079500 5.24026500 10.48053000
615 1 15.72079500 3.49351000 12.22728500
616 1 13.97404000 5.24026500 12.22728500
617 1 13.97404000 3.49351000 13.97404000
618 2 15.72079500 5.24026500 13.97404000
619 3 15.72079500 3.49351000 15.72079500
620 1 13.97404000 5.24026500 15.72079500
621 1 13.97404000 3.49351000 17.46755000
622 1 15.72079500 5.24026500 17.46755000
623 3 15.72079500 3.49351000 19.21430500
624 2 13.97404000 5.24026500 19.21430500
625 2 13.97404000 6.98702000 0.00000000
626 3 15.72079500 8.73377500 0.00000000
627 3 15.72079500 6.98702000 1.74675500
628 2 13.97404000 8.73377500 1.74675500
629 2 13.97404000 6.98702000 3.49351000
630 2 15.72079500 8.73377500 3.49351000
631 1 15.72079500 6.98702000 5.24026500
632 2 13.97404000 8.73377500 5.24026500
633 3 13.97404000 6.98702000 6.98702000
634 2 15.72079500 8.73377500 6.98702000
635 1 15.72079500 6.98702000 8.73377500
636 3 13.97404000 8.73377500 8.73377500
637 3 13.97404000 6.98702000 10.48053000
638 3 15.72079500 8.73377500 10.48053000
639 3 15.72079500 6.98702000 12.22728500
640 2 13.97404000 8.73377500 12.22728500
641 1 13.97404000 6.98702000 13.97404000
642 2 15.72079500 8.73377500 13.97404000
643 2 15.72079500 6.98702000 15.72079500
644 3 13.97404000 8.73377500 15.72079500
645 3 13.97404000 6.98702000 17.46755000
646 1 15.72079500 8.73377500 17.46755000
647 3 15.72079500 6.98702000 19.21430500
648 3 13.97404000 8.73377500 19.21430500
649 3 13.97404000 10.48053000 0.00000000
650 3 15.72079500 12.22728500 0.00000000
651 3 15.72079500 10.48053000 1.74675500
652 1 13.97404000 12.22728500 1.74675500
653 1 13.97404000 10.48053000 3.49351000
654 3 15.72079500 12.22728500 3.49351000
655 2 15.72079500 10.48053000 5.24026500
656 2 13.97404000 12.22728500 5.24026500
657 3 13.97404000 10.48053000 6.98702000
658 1 15.72079500 12.22728500 6.98702000
659 2 15.72079500 10.48053000 8.73377500
660 2 13.97404000 12.22728500 8.73377500
661 3 13.97404000 10.48053000 10.48053000
662 1 15.72079500 12.22728500 10.48053000
663 3 15.72079500 10.48053000 12.22728500
664 3 13.97404000 12.22728500 12.22728500
665 1 13.97404000 10.48053000 13.97404000
666 3 15.72079500 12.22728500 13.97404000
667 3 15.72079500 10.48053000 15.72079500
668 2 13.97404000 12.22728500 15.72079500
669 3 13.97404000 10.48053000 17.46755000
670 2 15.72079500 12.22728500 17.46755000
671 1 15.72079500 10.48053000 19.21430500
672 1 13.97404000 12.22728500 19.21430500
673 1 13.97404000 13.97404000 0.00000000
674 3 15.72079500 15.72079500 0.00000000
675 1 15.72079500 13.97404000 1.74675500
676 2 13.97404000 15.72079500 1.74675500
677 2 13.97404000 13.97404000 3.49351000
678 3 15.72079500 15.72079500 3.49351000
679 2 15.72079500 13.97404000 5.24026500
680 3 13.97404000 15.72079500 5.24026500
681 2 13.97404000 13.97404000 6.98702000
682 3 15.72079500 15.72079500 6.98702000
683 1 15.72079500 13.97404000 8.73377500
684 3 13.97404000 15.72079500 8.73377500
685 1 13.97404000 13.97404000 10.48053000
686 3 15.72079500 15.72079500 10.48053000
687 3 15.72079500 13.97404000 12.22728500
688 1 13.97404000 15.72079500 12.22728500
689 2 13.97404000 13.97404000 13.97404000
690 2 15.72079500 15.72079500 13.97404000
691 2 15.72079500 13.97404000 15.72079500
692 3 13.97404000 15.72079500 15.72079500
693 1 13.97404000 13.97404000 17.46755000
694 1 15.72079500 15.72079500 17.46755000
695 3 15.72079500 13.97404000 19.21430500
696 3 13.97404000 15.72079500 19.21430500
697 1 13.97404000 17.46755000 0.00000000
698 1 15.72079500 19.21430500 0.00000000
699 2 15.72079500 17.46755000 1.74675500
700 1 13.97404000 19.21430500 1.74675500
701 1 13.97404000 17.46755000 3.49351000
702 2 15.72079500 19.21430500 3.49351000
703 1 15.72079500 17.46755000 5.24026500
704 1 13.97404000 19.21430500 5.24026500
705 2 13.97404000 17.46755000 6.98702000
706 3 15.72079500 19.21430500 6.98702000
707 3 15.72079500 17.46755000 8.73377500
708 3 13.97404000 19.21430500 8.73377500
709 2 13.97404000 17.46755000 10.48053000
710 2 15.72079500 19.21430500 10.48053000
711 1 15.72079500 17.46755000 12.22728500
712 2 13.97404000 19.21430500 12.22728500
713 3 13.97404000 17.46755000 13.97404000
714 1 15.72079500 19.21430500 13.97404000
715 2 15.72079500 17.46755000 15.72079500
716 2 13.97404000 19.21430500 15.72079500
717 3 13.97404000 17.46755000 17.46755000
718 2 15.72079500 19.21430500 17.46755000
719 3 15.72079500 17.46755000 19.21430500
720 1 13.97404000 19.21430500 19.21430500
721 1 17.46755000 0.00000000 0.00000000
722 3 19.21430500 1.74675500 0.00000000
723 1 19.21430500 0.00000000 1.74675500
724 2 17.46755000 1.74675500 1.74675500
725 3 17.46755000 0.00000000 3.49351000
726 3 19.21430500 1.74675500 3.49351000
727 3 19.21430500 0.00000000 5.24026500
728 3 17.46755000 1.74675500 5.24026500
729 2 17.46755000 0.00000000 6.98702000
730 1 19.21430500 1.74675500 6.98702000
731 3 19.21430500 0.00000000 8.73377500
732 2 17.46755000 1.74675500 8.73377500
733 3 17.46755000 0.00000000 10.48053000
734 1 19.21430500 1.74675500 10.48053000
735 2 19.21430500 0.00000000 12.22728500
736 1 17.46755000 1.74675500 12.22728500
737 3 17.46755000 0.00000000 13.97404000