# HCP structure - OPTIMIZED (smaller supercell)
# Composition: {'Al': 0.75, 'Co': 0.0, 'Cr': 0.25}
# Al-Cr-Co System (Group 1) - Assignment 2 - MM309

432 atoms
3 atom types

0.0 15.94702568 xlo xhi
0.0 27.62105871 ylo yhi
0.0 26.04138389 zlo zhi

Masses

1 26.9815  # Al
2 58.9332  # Co
3 51.9961  # Cr

Atoms # atomic

1 3 0.00000000 0.00000000 0.00000000
2 1 0.00000000 4.60350979 0.00000000
3 1 0.00000000 9.20701957 0.00000000
4 1 0.00000000 13.81052936 0.00000000
5 1 0.00000000 18.41403914 0.00000000
6 3 0.00000000 23.01754893 0.00000000
7 1 2.65783761 0.00000000 0.00000000
8 1 2.65783761 4.60350979 0.00000000
9 1 2.65783761 9.20701957 0.00000000
10 1 2.65783761 13.81052936 0.00000000
11 1 2.65783761 18.41403914 0.00000000
12 1 2.65783761 23.01754893 0.00000000
13 3 5.31567523 0.00000000 0.00000000
14 3 5.31567523 4.60350979 0.00000000
15 1 5.31567523 9.20701957 0.00000000
16 1 5.31567523 13.81052936 0.00000000
17 1 5.31567523 18.41403914 0.00000000
18 1 5.31567523 23.01754893 0.00000000
19 1 7.97351284 0.00000000 0.00000000
20 3 7.97351284 4.60350979 0.00000000
21 3 7.97351284 9.20701957 0.00000000
22 1 7.97351284 13.81052936 0.00000000
23 1 7.97351284 18.41403914 0.00000000
24 1 7.97351284 23.01754893 0.00000000
25 1 10.63135046 0.00000000 0.00000000
26 1 10.63135046 4.60350979 0.00000000
27 1 10.63135046 9.20701957 0.00000000
28 1 10.63135046 13.81052936 0.00000000
29 1 10.63135046 18.41403914 0.00000000
30 3 10.63135046 23.01754893 0.00000000
31 3 13.28918807 0.00000000 0.00000000
32 3 13.28918807 4.60350979 0.00000000
33 1 13.28918807 9.20701957 0.00000000
34 1 13.28918807 13.81052936 0.00000000
35 1 13.28918807 18.41403914 0.00000000
36 1 13.28918807 23.01754893 0.00000000
37 1 1.32891881 2.30175489 2.17011532
38 3 1.32891881 6.90526468 2.17011532
39 3 1.32891881 11.50877446 2.17011532
40 3 1.32891881 16.11228425 2.17011532
41 1 1.32891881 20.71579403 2.17011532
42 1 1.32891881 25.31930382 2.17011532
43 1 3.98675642 2.30175489 2.17011532
44 1 3.98675642 6.90526468 2.17011532
45 3 3.98675642 11.50877446 2.17011532
46 1 3.98675642 16.11228425 2.17011532
47 1 3.98675642 20.71579403 2.17011532
48 1 3.98675642 25.31930382 2.17011532
49 3 6.64459403 2.30175489 2.17011532
50 1 6.64459403 6.90526468 2.17011532
51 3 6.64459403 11.50877446 2.17011532
52 3 6.64459403 16.11228425 2.17011532
53 1 6.64459403 20.71579403 2.17011532
54 1 6.64459403 25.31930382 2.17011532
55 1 9.30243165 2.30175489 2.17011532
56 3 9.30243165 6.90526468 2.17011532
57 3 9.30243165 11.50877446 2.17011532
58 1 9.30243165 16.11228425 2.17011532
59 1 9.30243165 20.71579403 2.17011532
60 1 9.30243165 25.31930382 2.17011532
61 1 11.96026926 2.30175489 2.17011532
62 3 11.96026926 6.90526468 2.17011532
63 3 11.96026926 11.50877446 2.17011532
64 1 11.96026926 16.11228425 2.17011532
65 1 11.96026926 20.71579403 2.17011532
66 1 11.96026926 25.31930382 2.17011532
67 1 14.61810688 2.30175489 2.17011532
68 3 14.61810688 6.90526468 2.17011532
69 1 14.61810688 11.50877446 2.17011532
70 1 14.61810688 16.11228425 2.17011532
71 1 14.61810688 20.71579403 2.17011532
72 1 14.61810688 25.31930382 2.17011532
73 1 0.00000000 0.00000000 4.34023065
74 1 0.00000000 4.60350979 4.34023065
75 3 0.00000000 9.20701957 4.34023065
76 1 0.00000000 13.81052936 4.34023065
77 1 0.00000000 18.41403914 4.34023065
78 1 0.00000000 23.01754893 4.34023065
79 3 2.65783761 0.00000000 4.34023065
80 1 2.65783761 4.60350979 4.34023065
81 1 2.65783761 9.20701957 4.34023065
82 3 2.65783761 13.81052936 4.34023065
83 1 2.65783761 18.41403914 4.34023065
84 3 2.65783761 23.01754893 4.34023065
85 3 5.31567523 0.00000000 4.34023065
86 1 5.31567523 4.60350979 4.34023065
87 1 5.31567523 9.20701957 4.34023065
88 1 5.31567523 13.81052936 4.34023065
89 1 5.31567523 18.41403914 4.34023065
90 1 5.31567523 23.01754893 4.34023065
91 3 7.97351284 0.00000000 4.34023065
92 1 7.97351284 4.60350979 4.34023065
93 1 7.97351284 9.20701957 4.34023065
94 3 7.97351284 13.81052936 4.34023065
95 1 7.97351284 18.41403914 4.34023065
96 1 7.97351284 23.01754893 4.34023065
97 1 10.63135046 0.00000000 4.34023065
98 1 10.63135046 4.60350979 4.34023065
99 1 10.63135046 9.20701957 4.34023065
100 1 10.63135046 13.81052936 4.34023065
101 1 10.63135046 18.41403914 4.34023065
102 1 10.63135046 23.01754893 4.34023065
103 3 13.28918807 0.00000000 4.34023065
104 1 13.28918807 4.60350979 4.34023065
105 1 13.28918807 9.20701957 4.34023065
106 1 13.28918807 13.81052936 4.34023065
107 1 13.28918807 18.41403914 4.34023065
108 1 13.28918807 23.01754893 4.34023065
109 1 1.32891881 2.30175489 6.51034597
110 3 1.32891881 6.90526468 6.51034597
111 1 1.32891881 11.50877446 6.51034597
112 1 1.32891881 16.11228425 6.51034597
113 1 1.32891881 20.71579403 6.51034597
114 1 1.32891881 25.31930382 6.51034597
115 1 3.98675642 2.30175489 6.51034597
116 1 3.98675642 6.90526468 6.51034597
117 1 3.98675642 11.50877446 6.51034597
118 1 3.98675642 16.11228425 6.51034597
119 3 3.98675642 20.71579403 6.51034597
120 3 3.98675642 25.31930382 6.51034597
121 1 6.64459403 2.30175489 6.51034597
122 1 6.64459403 6.90526468 6.51034597
123 1 6.64459403 11.50877446 6.51034597
124 1 6.64459403 16.11228425 6.51034597
125 1 6.64459403 20.71579403 6.51034597
126 3 6.64459403 25.31930382 6.51034597
127 3 9.30243165 2.30175489 6.51034597
128 1 9.30243165 6.90526468 6.51034597
129 1 9.30243165 11.50877446 6.51034597
130 3 9.30243165 16.11228425 6.51034597
131 1 9.30243165 20.71579403 6.51034597
132 1 9.30243165 25.31930382 6.51034597
133 1 11.96026926 2.30175489 6.51034597
134 3 11.96026926 6.90526468 6.51034597
135 3 11.96026926 11.50877446 6.51034597
136 1 11.96026926 16.11228425 6.51034597
137 3 11.96026926 20.71579403 6.51034597
138 1 11.96026926 25.31930382 6.51034597
139 3 14.61810688 2.30175489 6.51034597
140 1 14.61810688 6.90526468 6.51034597
141 1 14.61810688 11.50877446 6.51034597
142 1 14.61810688 16.11228425 6.51034597
143 1 14.61810688 20.71579403 6.51034597
144 1 14.61810688 25.31930382 6.51034597
145 3 0.00000000 0.00000000 8.68046130
146 1 0.00000000 4.60350979 8.68046130
147 3 0.00000000 9.20701957 8.68046130
148 3 0.00000000 13.81052936 8.68046130
149 1 0.00000000 18.41403914 8.68046130
150 1 0.00000000 23.01754893 8.68046130
151 1 2.65783761 0.00000000 8.68046130
152 1 2.65783761 4.60350979 8.68046130
153 1 2.65783761 9.20701957 8.68046130
154 1 2.65783761 13.81052936 8.68046130
155 1 2.65783761 18.41403914 8.68046130
156 1 2.65783761 23.01754893 8.68046130
157 1 5.31567523 0.00000000 8.68046130
158 3 5.31567523 4.60350979 8.68046130
159 1 5.31567523 9.20701957 8.68046130
160 1 5.31567523 13.81052936 8.68046130
161 1 5.31567523 18.41403914 8.68046130
162 1 5.31567523 23.01754893 8.68046130
163 1 7.97351284 0.00000000 8.68046130
164 3 7.97351284 4.60350979 8.68046130
165 3 7.97351284 9.20701957 8.68046130
166 1 7.97351284 13.81052936 8.68046130
167 1 7.97351284 18.41403914 8.68046130
168 1 7.97351284 23.01754893 8.68046130
169 3 10.63135046 0.00000000 8.68046130
170 1 10.63135046 4.60350979 8.68046130
171 3 10.63135046 9.20701957 8.68046130
172 1 10.63135046 13.81052936 8.68046130
173 1 10.63135046 18.41403914 8.68046130
174 1 10.63135046 23.01754893 8.68046130
175 1 13.28918807 0.00000000 8.68046130
176 1 13.28918807 4.60350979 8.68046130
177 1 13.28918807 9.20701957 8.68046130
178 1 13.28918807 13.81052936 8.68046130
179 1 13.28918807 18.41403914 8.68046130
180 1 13.28918807 23.01754893 8.68046130
181 1 1.32891881 2.30175489 10.85057662
182 3 1.32891881 6.90526468 10.85057662
183 1 1.32891881 11.50877446 10.85057662
184 1 1.32891881 16.11228425 10.85057662
185 3 1.32891881 20.71579403 10.85057662
186 1 1.32891881 25.31930382 10.85057662
187 1 3.98675642 2.30175489 10.85057662
188 1 3.98675642 6.90526468 10.85057662
189 1 3.98675642 11.50877446 10.85057662
190 1 3.98675642 16.11228425 10.85057662
191 3 3.98675642 20.71579403 10.85057662
192 1 3.98675642 25.31930382 10.85057662
193 1 6.64459403 2.30175489 10.85057662
194 1 6.64459403 6.90526468 10.85057662
195 1 6.64459403 11.50877446 10.85057662
196 1 6.64459403 16.11228425 10.85057662
197 1 6.64459403 20.71579403 10.85057662
198 1 6.64459403 25.31930382 10.85057662
199 1 9.30243165 2.30175489 10.85057662
200 1 9.30243165 6.90526468 10.85057662
201 1 9.30243165 11.50877446 10.85057662
202 3 9.30243165 16.11228425 10.85057662
203 3 9.30243165 20.71579403 10.85057662
204 1 9.30243165 25.31930382 10.85057662
205 3 11.96026926 2.30175489 10.85057662
206 1 11.96026926 6.90526468 10.85057662
207 1 11.96026926 11.50877446 10.85057662
208 1 11.96026926 16.11228425 10.85057662
209 1 11.96026926 20.71579403 10.85057662
210 1 11.96026926 25.31930382 10.85057662
211 1 14.61810688 2.30175489 10.85057662
212 1 14.61810688 6.90526468 10.85057662
213 3 14.61810688 11.50877446 10.85057662
214 1 14.61810688 16.11228425 10.85057662
215 3 14.61810688 20.71579403 10.85057662
216 1 14.61810688 25.31930382 10.85057662
217 1 0.00000000 0.00000000 13.02069195
218 1 0.00000000 4.60350979 13.02069195
219 1 0.00000000 9.20701957 13.02069195
220 1 0.00000000 13.81052936 13.02069195
221 1 0.00000000 18.41403914 13.02069195
222 1 0.00000000 23.01754893 13.02069195
223 1 2.65783761 0.00000000 13.02069195
224 1 2.65783761 4.60350979 13.02069195
225 1 2.65783761 9.20701957 13.02069195
226 1 2.65783761 13.81052936 13.02069195
227 3 2.65783761 18.41403914 13.02069195
228 1 2.65783761 23.01754893 13.02069195
229 1 5.31567523 0.00000000 13.02069195
230 1 5.31567523 4.60350979 13.02069195
231 1 5.31567523 9.20701957 13.02069195
232 1 5.31567523 13.81052936 13.02069195
233 1 5.31567523 18.41403914 13.02069195
234 1 5.31567523 23.01754893 13.02069195
235 1 7.97351284 0.00000000 13.02069195
236 3 7.97351284 4.60350979 13.02069195
237 1 7.97351284 9.20701957 13.02069195
238 1 7.97351284 13.81052936 13.02069195
239 1 7.97351284 18.41403914 13.02069195
240 1 7.97351284 23.01754893 13.02069195
241 1 10.63135046 0.00000000 13.02069195
242 1 10.63135046 4.60350979 13.02069195
243 1 10.63135046 9.20701957 13.02069195
244 1 10.63135046 13.81052936 13.02069195
245 1 10.63135046 18.41403914 13.02069195
246 1 10.63135046 23.01754893 13.02069195
247 1 13.28918807 0.00000000 13.02069195
248 3 13.28918807 4.60350979 13.02069195
249 3 13.28918807 9.20701957 13.02069195
250 1 13.28918807 13.81052936 13.02069195
251 1 13.28918807 18.41403914 13.02069195
252 1 13.28918807 23.01754893 13.02069195
253 1 1.32891881 2.30175489 15.19080727
254 3 1.32891881 6.90526468 15.19080727
255 1 1.32891881 11.50877446 15.19080727
256 3 1.32891881 16.11228425 15.19080727
257 1 1.32891881 20.71579403 15.19080727
258 1 1.32891881 25.31930382 15.19080727
259 1 3.98675642 2.30175489 15.19080727
260 1 3.98675642 6.90526468 15.19080727
261 1 3.98675642 11.50877446 15.19080727
262 1 3.98675642 16.11228425 15.19080727
263 3 3.98675642 20.71579403 15.19080727
264 3 3.98675642 25.31930382 15.19080727
265 3 6.64459403 2.30175489 15.19080727
266 1 6.64459403 6.90526468 15.19080727
267 1 6.64459403 11.50877446 15.19080727
268 3 6.64459403 16.11228425 15.19080727
269 3 6.64459403 20.71579403 15.19080727
270 1 6.64459403 25.31930382 15.19080727
271 1 9.30243165 2.30175489 15.19080727
272 1 9.30243165 6.90526468 15.19080727
273 1 9.30243165 11.50877446 15.19080727
274 3 9.30243165 16.11228425 15.19080727
275 1 9.30243165 20.71579403 15.19080727
276 1 9.30243165 25.31930382 15.19080727
277 1 11.96026926 2.30175489 15.19080727
278 1 11.96026926 6.90526468 15.19080727
279 1 11.96026926 11.50877446 15.19080727
280 1 11.96026926 16.11228425 15.19080727
281 1 11.96026926 20.71579403 15.19080727
282 1 11.96026926 25.31930382 15.19080727
283 3 14.61810688 2.30175489 15.19080727
284 3 14.61810688 6.90526468 15.19080727
285 1 14.61810688 11.50877446 15.19080727
286 1 14.61810688 16.11228425 15.19080727
287 1 14.61810688 20.71579403 15.19080727
288 1 14.61810688 25.31930382 15.19080727
289 3 0.00000000 0.00000000 17.36092259
290 3 0.00000000 4.60350979 17.36092259
291 3 0.00000000 9.20701957 17.36092259
292 3 0.00000000 13.81052936 17.36092259
293 3 0.00000000 18.41403914 17.36092259
294 1 0.00000000 23.01754893 17.36092259
295 1 2.65783761 0.00000000 17.36092259
296 1 2.65783761 4.60350979 17.36092259
297 3 2.65783761 9.20701957 17.36092259
298 3 2.65783761 13.81052936 17.36092259
299 1 2.65783761 18.41403914 17.36092259
300 1 2.65783761 23.01754893 17.36092259
301 1 5.31567523 0.00000000 17.36092259
302 3 5.31567523 4.60350979 17.36092259
303 1 5.31567523 9.20701957 17.36092259
304 1 5.31567523 13.81052936 17.36092259
305 1 5.31567523 18.41403914 17.36092259
306 1 5.31567523 23.01754893 17.36092259
307 1 7.97351284 0.00000000 17.36092259
308 3 7.97351284 4.60350979 17.36092259
309 1 7.97351284 9.20701957 17.36092259
310 1 7.97351284 13.81052936 17.36092259
311 1 7.97351284 18.41403914 17.36092259
312 1 7.97351284 23.01754893 17.36092259
313 1 10.63135046 0.00000000 17.36092259
314 1 10.63135046 4.60350979 17.36092259
315 1 10.63135046 9.20701957 17.36092259
316 3 10.63135046 13.81052936 17.36092259
317 3 10.63135046 18.41403914 17.36092259
318 1 10.63135046 23.01754893 17.36092259
319 1 13.28918807 0.00000000 17.36092259
320 1 13.28918807 4.60350979 17.36092259
321 1 13.28918807 9.20701957 17.36092259
322 1 13.28918807 13.81052936 17.36092259
323 1 13.28918807 18.41403914 17.36092259
324 1 13.28918807 23.01754893 17.36092259
325 1 1.32891881 2.30175489 19.53103792
326 1 1.32891881 6.90526468 19.53103792
327 3 1.32891881 11.50877446 19.53103792
328 1 1.32891881 16.11228425 19.53103792
329 1 1.32891881 20.71579403 19.53103792
330 1 1.32891881 25.31930382 19.53103792
331 1 3.98675642 2.30175489 19.53103792
332 1 3.98675642 6.90526468 19.53103792
333 1 3.98675642 11.50877446 19.53103792
334 3 3.98675642 16.11228425 19.53103792
335 1 3.98675642 20.71579403 19.53103792
336 1 3.98675642 25.31930382 19.53103792
337 1 6.64459403 2.30175489 19.53103792
338 1 6.64459403 6.90526468 19.53103792
339 1 6.64459403 11.50877446 19.53103792
340 1 6.64459403 16.11228425 19.53103792
341 1 6.64459403 20.71579403 19.53103792
342 1 6.64459403 25.31930382 19.53103792
343 3 9.30243165 2.30175489 19.53103792
344 1 9.30243165 6.90526468 19.53103792
345 1 9.30243165 11.50877446 19.53103792
346 1 9.30243165 16.11228425 19.53103792
347 1 9.30243165 20.71579403 19.53103792
348 1 9.30243165 25.31930382 19.53103792
349 3 11.96026926 2.30175489 19.53103792
350 3 11.96026926 6.90526468 19.53103792
351 1 11.96026926 11.50877446 19.53103792
352 1 11.96026926 16.11228425 19.53103792
353 1 11.96026926 20.71579403 19.53103792
354 1 11.96026926 25.31930382 19.53103792
355 1 14.61810688 2.30175489 19.53103792
356 1 14.61810688 6.90526468 19.53103792
357 1 14.61810688 11.50877446 19.53103792
358 3 14.61810688 16.11228425 19.53103792
359 1 14.61810688 20.71579403 19.53103792
360 1 14.61810688 25.31930382 19.53103792
361 1 0.00000000 0.00000000 21.70115324
362 1 0.00000000 4.60350979 21.70115324
363 1 0.00000000 9.20701957 21.70115324
364 3 0.00000000 13.81052936 21.70115324
365 3 0.00000000 18.41403914 21.70115324
366 3 0.00000000 23.01754893 21.70115324
367 1 2.65783761 0.00000000 21.70115324
368 1 2.65783761 4.60350979 21.70115324
369 3 2.65783761 9.20701957 21.70115324
370 1 2.65783761 13.81052936 21.70115324
371 1 2.65783761 18.41403914 21.70115324
372 1 2.65783761 23.01754893 21.70115324
373 1 5.31567523 0.00000000 21.70115324
374 1 5.31567523 4.60350979 21.70115324
375 1 5.31567523 9.20701957 21.70115324
376 1 5.31567523 13.81052936 21.70115324
377 1 5.31567523 18.41403914 21.70115324
378 3 5.31567523 23.01754893 21.70115324
379 3 7.97351284 0.00000000 21.70115324
380 1 7.97351284 4.60350979 21.70115324
381 3 7.97351284 9.20701957 21.70115324
382 1 7.97351284 13.81052936 21.70115324
383 3 7.97351284 18.41403914 21.70115324
384 1 7.97351284 23.01754893 21.70115324
385 1 10.63135046 0.00000000 21.70115324
386 1 10.63135046 4.60350979 21.70115324
387 1 10.63135046 9.20701957 21.70115324
388 1 10.63135046 13.81052936 21.70115324
389 1 10.63135046 18.41403914 21.70115324
390 1 10.63135046 23.01754893 21.70115324
391 3 13.28918807 0.00000000 21.70115324
392 1 13.28918807 4.60350979 21.70115324
393 3 13.28918807 9.20701957 21.70115324
394 1 13.28918807 13.81052936 21.70115324
395 3 13.28918807 18.41403914 21.70115324
396 1 13.28918807 23.01754893 21.70115324
397 1 1.32891881 2.30175489 23.87126857
398 1 1.32891881 6.90526468 23.87126857
399 3 1.32891881 11.50877446 23.87126857
400 1 1.32891881 16.11228425 23.87126857
401 1 1.32891881 20.71579403 23.87126857
402 1 1.32891881 25.31930382 23.87126857
403 3 3.98675642 2.30175489 23.87126857
404 1 3.98675642 6.90526468 23.87126857
405 1 3.98675642 11.50877446 23.87126857
406 3 3.98675642 16.11228425 23.87126857
407 3 3.98675642 20.71579403 23.87126857
408 3 3.98675642 25.31930382 23.87126857
409 1 6.64459403 2.30175489 23.87126857
410 1 6.64459403 6.90526468 23.87126857
411 1 6.64459403 11.50877446 23.87126857
412 1 6.64459403 16.11228425 23.87126857
413 3 6.64459403 20.71579403 23.87126857
414 1 6.64459403 25.31930382 23.87126857
415 1 9.30243165 2.30175489 23.87126857
416 1 9.30243165 6.90526468 23.87126857
417 3 9.30243165 11.50877446 23.87126857
418 3 9.30243165 16.11228425 23.87126857
419 3 9.30243165 20.71579403 23.87126857
420 1 9.30243165 25.31930382 23.87126857
421 1 11.96026926 2.30175489 23.87126857
422 1 11.96026926 6.90526468 23.87126857
423 1 11.96026926 11.50877446 23.87126857
424 1 11.96026926 16.11228425 23.87126857
425 1 11.96026926 20.71579403 23.87126857
426 1 11.96026926 25.31930382 23.87126857
427 1 14.61810688 2.30175489 23.87126857
428 3 14.61810688 6.90526468 23.87126857
429 1 14.61810688 11.50877446 23.87126857
430 1 14.61810688 16.11228425 23.87126857
431 3 14.61810688 20.71579403 23.87126857
432 1 14.61810688 25.31930382 23.87126857
