# FCC structure - OPTIMIZED (smaller supercell)
# Composition: {'Al': 0.5, 'Co': 0.25, 'Cr': 0.25}
# Al-Cr-Co System (Group 1) - Assignment 2 - MM309

864 atoms
3 atom types

0.0 21.79350000 xlo xhi
0.0 21.79350000 ylo yhi
0.0 21.79350000 zlo zhi

Masses

1 26.9815  # Al
2 58.9332  # Co
3 51.9961  # Cr

Atoms # atomic

1 1 0.00000000 0.00000000 0.00000000
2 1 1.81612500 1.81612500 0.00000000
3 1 1.81612500 0.00000000 1.81612500
4 2 0.00000000 1.81612500 1.81612500
5 2 0.00000000 0.00000000 3.63225000
6 1 1.81612500 1.81612500 3.63225000
7 3 1.81612500 0.00000000 5.44837500
8 3 0.00000000 1.81612500 5.44837500
9 1 0.00000000 0.00000000 7.26450000
10 1 1.81612500 1.81612500 7.26450000
11 3 1.81612500 0.00000000 9.08062500
12 2 0.00000000 1.81612500 9.08062500
13 2 0.00000000 0.00000000 10.89675000
14 1 1.81612500 1.81612500 10.89675000
15 2 1.81612500 0.00000000 12.71287500
16 1 0.00000000 1.81612500 12.71287500
17 1 0.00000000 0.00000000 14.52900000
18 1 1.81612500 1.81612500 14.52900000
19 3 1.81612500 0.00000000 16.34512500
20 1 0.00000000 1.81612500 16.34512500
21 3 0.00000000 0.00000000 18.16125000
22 3 1.81612500 1.81612500 18.16125000
23 2 1.81612500 0.00000000 19.97737500
24 3 0.00000000 1.81612500 19.97737500
25 3 0.00000000 3.63225000 0.00000000
26 2 1.81612500 5.44837500 0.00000000
27 1 1.81612500 3.63225000 1.81612500
28 3 0.00000000 5.44837500 1.81612500
29 1 0.00000000 3.63225000 3.63225000
30 1 1.81612500 5.44837500 3.63225000
31 1 1.81612500 3.63225000 5.44837500
32 2 0.00000000 5.44837500 5.44837500
33 1 0.00000000 3.63225000 7.26450000
34 2 1.81612500 5.44837500 7.26450000
35 1 1.81612500 3.63225000 9.08062500
36 1 0.00000000 5.44837500 9.08062500
37 1 0.00000000 3.63225000 10.89675000
38 2 1.81612500 5.44837500 10.89675000
39 1 1.81612500 3.63225000 12.71287500
40 1 0.00000000 5.44837500 12.71287500
41 1 0.00000000 3.63225000 14.52900000
42 3 1.81612500 5.44837500 14.52900000
43 1 1.81612500 3.63225000 16.34512500
44 3 0.00000000 5.44837500 16.34512500
45 2 0.00000000 3.63225000 18.16125000
46 3 1.81612500 5.44837500 18.16125000
47 1 1.81612500 3.63225000 19.97737500
48 2 0.00000000 5.44837500 19.97737500
49 1 0.00000000 7.26450000 0.00000000
50 2 1.81612500 9.08062500 0.00000000
51 1 1.81612500 7.26450000 1.81612500
52 1 0.00000000 9.08062500 1.81612500
53 2 0.00000000 7.26450000 3.63225000
54 2 1.81612500 9.08062500 3.63225000
55 3 1.81612500 7.26450000 5.44837500
56 3 0.00000000 9.08062500 5.44837500
57 2 0.00000000 7.26450000 7.26450000
58 3 1.81612500 9.08062500 7.26450000
59 1 1.81612500 7.26450000 9.08062500
60 1 0.00000000 9.08062500 9.08062500
61 1 0.00000000 7.26450000 10.89675000
62 3 1.81612500 9.08062500 10.89675000
63 3 1.81612500 7.26450000 12.71287500
64 2 0.00000000 9.08062500 12.71287500
65 3 0.00000000 7.26450000 14.52900000
66 1 1.81612500 9.08062500 14.52900000
67 1 1.81612500 7.26450000 16.34512500
68 2 0.00000000 9.08062500 16.34512500
69 1 0.00000000 7.26450000 18.16125000
70 1 1.81612500 9.08062500 18.16125000
71 3 1.81612500 7.26450000 19.97737500
72 1 0.00000000 9.08062500 19.97737500
73 1 0.00000000 10.89675000 0.00000000
74 2 1.81612500 12.71287500 0.00000000
75 3 1.81612500 10.89675000 1.81612500
76 3 0.00000000 12.71287500 1.81612500
77 2 0.00000000 10.89675000 3.63225000
78 3 1.81612500 12.71287500 3.63225000
79 2 1.81612500 10.89675000 5.44837500
80 3 0.00000000 12.71287500 5.44837500
81 1 0.00000000 10.89675000 7.26450000
82 3 1.81612500 12.71287500 7.26450000
83 3 1.81612500 10.89675000 9.08062500
84 1 0.00000000 12.71287500 9.08062500
85 2 0.00000000 10.89675000 10.89675000
86 3 1.81612500 12.71287500 10.89675000
87 3 1.81612500 10.89675000 12.71287500
88 1 0.00000000 12.71287500 12.71287500
89 2 0.00000000 10.89675000 14.52900000
90 3 1.81612500 12.71287500 14.52900000
91 1 1.81612500 10.89675000 16.34512500
92 3 0.00000000 12.71287500 16.34512500
93 3 0.00000000 10.89675000 18.16125000
94 1 1.81612500 12.71287500 18.16125000
95 1 1.81612500 10.89675000 19.97737500
96 3 0.00000000 12.71287500 19.97737500
97 3 0.00000000 14.52900000 0.00000000
98 1 1.81612500 16.34512500 0.00000000
99 1 1.81612500 14.52900000 1.81612500
100 2 0.00000000 16.34512500 1.81612500
101 2 0.00000000 14.52900000 3.63225000
102 1 1.81612500 16.34512500 3.63225000
103 1 1.81612500 14.52900000 5.44837500
104 1 0.00000000 16.34512500 5.44837500
105 3 0.00000000 14.52900000 7.26450000
106 2 1.81612500 16.34512500 7.26450000
107 1 1.81612500 14.52900000 9.08062500
108 3 0.00000000 16.34512500 9.08062500
109 1 0.00000000 14.52900000 10.89675000
110 3 1.81612500 16.34512500 10.89675000
111 1 1.81612500 14.52900000 12.71287500
112 2 0.00000000 16.34512500 12.71287500
113 1 0.00000000 14.52900000 14.52900000
114 2 1.81612500 16.34512500 14.52900000
115 1 1.81612500 14.52900000 16.34512500
116 3 0.00000000 16.34512500 16.34512500
117 2 0.00000000 14.52900000 18.16125000
118 2 1.81612500 16.34512500 18.16125000
119 3 1.81612500 14.52900000 19.97737500
120 1 0.00000000 16.34512500 19.97737500
121 1 0.00000000 18.16125000 0.00000000
122 1 1.81612500 19.97737500 0.00000000
123 1 1.81612500 18.16125000 1.81612500
124 2 0.00000000 19.97737500 1.81612500
125 2 0.00000000 18.16125000 3.63225000
126 3 1.81612500 19.97737500 3.63225000
127 1 1.81612500 18.16125000 5.44837500
128 1 0.00000000 19.97737500 5.44837500
129 3 0.00000000 18.16125000 7.26450000
130 3 1.81612500 19.97737500 7.26450000
131 1 1.81612500 18.16125000 9.08062500
132 2 0.00000000 19.97737500 9.08062500
133 1 0.00000000 18.16125000 10.89675000
134 2 1.81612500 19.97737500 10.89675000
135 1 1.81612500 18.16125000 12.71287500
136 3 0.00000000 19.97737500 12.71287500
137 1 0.00000000 18.16125000 14.52900000
138 2 1.81612500 19.97737500 14.52900000
139 3 1.81612500 18.16125000 16.34512500
140 1 0.00000000 19.97737500 16.34512500
141 3 0.00000000 18.16125000 18.16125000
142 1 1.81612500 19.97737500 18.16125000
143 3 1.81612500 18.16125000 19.97737500
144 2 0.00000000 19.97737500 19.97737500
145 1 3.63225000 0.00000000 0.00000000
146 1 5.44837500 1.81612500 0.00000000
147 2 5.44837500 0.00000000 1.81612500
148 1 3.63225000 1.81612500 1.81612500
149 1 3.63225000 0.00000000 3.63225000
150 3 5.44837500 1.81612500 3.63225000
151 2 5.44837500 0.00000000 5.44837500
152 1 3.63225000 1.81612500 5.44837500
153 3 3.63225000 0.00000000 7.26450000
154 1 5.44837500 1.81612500 7.26450000
155 1 5.44837500 0.00000000 9.08062500
156 1 3.63225000 1.81612500 9.08062500
157 2 3.63225000 0.00000000 10.89675000
158 1 5.44837500 1.81612500 10.89675000
159 2 5.44837500 0.00000000 12.71287500
160 2 3.63225000 1.81612500 12.71287500
161 1 3.63225000 0.00000000 14.52900000
162 2 5.44837500 1.81612500 14.52900000
163 2 5.44837500 0.00000000 16.34512500
164 1 3.63225000 1.81612500 16.34512500
165 1 3.63225000 0.00000000 18.16125000
166 2 5.44837500 1.81612500 18.16125000
167 3 5.44837500 0.00000000 19.97737500
168 1 3.63225000 1.81612500 19.97737500
169 3 3.63225000 3.63225000 0.00000000
170 3 5.44837500 5.44837500 0.00000000
171 3 5.44837500 3.63225000 1.81612500
172 2 3.63225000 5.44837500 1.81612500
173 3 3.63225000 3.63225000 3.63225000
174 2 5.44837500 5.44837500 3.63225000
175 1 5.44837500 3.63225000 5.44837500
176 1 3.63225000 5.44837500 5.44837500
177 1 3.63225000 3.63225000 7.26450000
178 1 5.44837500 5.44837500 7.26450000
179 2 5.44837500 3.63225000 9.08062500
180 3 3.63225000 5.44837500 9.08062500
181 1 3.63225000 3.63225000 10.89675000
182 3 5.44837500 5.44837500 10.89675000
183 1 5.44837500 3.63225000 12.71287500
184 2 3.63225000 5.44837500 12.71287500
185 1 3.63225000 3.63225000 14.52900000
186 1 5.44837500 5.44837500 14.52900000
187 1 5.44837500 3.63225000 16.34512500
188 3 3.63225000 5.44837500 16.34512500
189 1 3.63225000 3.63225000 18.16125000
190 1 5.44837500 5.44837500 18.16125000
191 1 5.44837500 3.63225000 19.97737500
192 1 3.63225000 5.44837500 19.97737500
193 1 3.63225000 7.26450000 0.00000000
194 2 5.44837500 9.08062500 0.00000000
195 1 5.44837500 7.26450000 1.81612500
196 1 3.63225000 9.08062500 1.81612500
197 1 3.63225000 7.26450000 3.63225000
198 2 5.44837500 9.08062500 3.63225000
199 2 5.44837500 7.26450000 5.44837500
200 1 3.63225000 9.08062500 5.44837500
201 3 3.63225000 7.26450000 7.26450000
202 1 5.44837500 9.08062500 7.26450000
203 1 5.44837500 7.26450000 9.08062500
204 3 3.63225000 9.08062500 9.08062500
205 1 3.63225000 7.26450000 10.89675000
206 1 5.44837500 9.08062500 10.89675000
207 1 5.44837500 7.26450000 12.71287500
208 3 3.63225000 9.08062500 12.71287500
209 3 3.63225000 7.26450000 14.52900000
210 1 5.44837500 9.08062500 14.52900000
211 1 5.44837500 7.26450000 16.34512500
212 1 3.63225000 9.08062500 16.34512500
213 2 3.63225000 7.26450000 18.16125000
214 2 5.44837500 9.08062500 18.16125000
215 1 5.44837500 7.26450000 19.97737500
216 1 3.63225000 9.08062500 19.97737500
217 2 3.63225000 10.89675000 0.00000000
218 1 5.44837500 12.71287500 0.00000000
219 3 5.44837500 10.89675000 1.81612500
220 2 3.63225000 12.71287500 1.81612500
221 3 3.63225000 10.89675000 3.63225000
222 1 5.44837500 12.71287500 3.63225000
223 2 5.44837500 10.89675000 5.44837500
224 2 3.63225000 12.71287500 5.44837500
225 1 3.63225000 10.89675000 7.26450000
226 1 5.44837500 12.71287500 7.26450000
227 1 5.44837500 10.89675000 9.08062500
228 2 3.63225000 12.71287500 9.08062500
229 2 3.63225000 10.89675000 10.89675000
230 1 5.44837500 12.71287500 10.89675000
231 2 5.44837500 10.89675000 12.71287500
232 1 3.63225000 12.71287500 12.71287500
233 1 3.63225000 10.89675000 14.52900000
234 1 5.44837500 12.71287500 14.52900000
235 1 5.44837500 10.89675000 16.34512500
236 3 3.63225000 12.71287500 16.34512500
237 1 3.63225000 10.89675000 18.16125000
238 2 5.44837500 12.71287500 18.16125000
239 2 5.44837500 10.89675000 19.97737500
240 1 3.63225000 12.71287500 19.97737500
241 2 3.63225000 14.52900000 0.00000000
242 2 5.44837500 16.34512500 0.00000000
243 3 5.44837500 14.52900000 1.81612500
244 3 3.63225000 16.34512500 1.81612500
245 1 3.63225000 14.52900000 3.63225000
246 1 5.44837500 16.34512500 3.63225000
247 1 5.44837500 14.52900000 5.44837500
248 2 3.63225000 16.34512500 5.44837500
249 1 3.63225000 14.52900000 7.26450000
250 1 5.44837500 16.34512500 7.26450000
251 3 5.44837500 14.52900000 9.08062500
252 3 3.63225000 16.34512500 9.08062500
253 1 3.63225000 14.52900000 10.89675000
254 1 5.44837500 16.34512500 10.89675000
255 3 5.44837500 14.52900000 12.71287500
256 2 3.63225000 16.34512500 12.71287500
257 1 3.63225000 14.52900000 14.52900000
258 1 5.44837500 16.34512500 14.52900000
259 1 5.44837500 14.52900000 16.34512500
260 2 3.63225000 16.34512500 16.34512500
261 1 3.63225000 14.52900000 18.16125000
262 1 5.44837500 16.34512500 18.16125000
263 1 5.44837500 14.52900000 19.97737500
264 1 3.63225000 16.34512500 19.97737500
265 1 3.63225000 18.16125000 0.00000000
266 3 5.44837500 19.97737500 0.00000000
267 3 5.44837500 18.16125000 1.81612500
268 1 3.63225000 19.97737500 1.81612500
269 1 3.63225000 18.16125000 3.63225000
270 1 5.44837500 19.97737500 3.63225000
271 1 5.44837500 18.16125000 5.44837500
272 2 3.63225000 19.97737500 5.44837500
273 2 3.63225000 18.16125000 7.26450000
274 2 5.44837500 19.97737500 7.26450000
275 1 5.44837500 18.16125000 9.08062500
276 2 3.63225000 19.97737500 9.08062500
277 1 3.63225000 18.16125000 10.89675000
278 1 5.44837500 19.97737500 10.89675000
279 1 5.44837500 18.16125000 12.71287500
280 3 3.63225000 19.97737500 12.71287500
281 3 3.63225000 18.16125000 14.52900000
282 3 5.44837500 19.97737500 14.52900000
283 1 5.44837500 18.16125000 16.34512500
284 1 3.63225000 19.97737500 16.34512500
285 1 3.63225000 18.16125000 18.16125000
286 2 5.44837500 19.97737500 18.16125000
287 2 5.44837500 18.16125000 19.97737500
288 1 3.63225000 19.97737500 19.97737500
289 1 7.26450000 0.00000000 0.00000000
290 1 9.08062500 1.81612500 0.00000000
291 1 9.08062500 0.00000000 1.81612500
292 3 7.26450000 1.81612500 1.81612500
293 2 7.26450000 0.00000000 3.63225000
294 1 9.08062500 1.81612500 3.63225000
295 1 9.08062500 0.00000000 5.44837500
296 2 7.26450000 1.81612500 5.44837500
297 1 7.26450000 0.00000000 7.26450000
298 1 9.08062500 1.81612500 7.26450000
299 2 9.08062500 0.00000000 9.08062500
300 1 7.26450000 1.81612500 9.08062500
301 1 7.26450000 0.00000000 10.89675000
302 1 9.08062500 1.81612500 10.89675000
303 3 9.08062500 0.00000000 12.71287500
304 1 7.26450000 1.81612500 12.71287500
305 1 7.26450000 0.00000000 14.52900000
306 1 9.08062500 1.81612500 14.52900000
307 2 9.08062500 0.00000000 16.34512500
308 2 7.26450000 1.81612500 16.34512500
309 1 7.26450000 0.00000000 18.16125000
310 2 9.08062500 1.81612500 18.16125000
311 1 9.08062500 0.00000000 19.97737500
312 2 7.26450000 1.81612500 19.97737500
313 1 7.26450000 3.63225000 0.00000000
314 3 9.08062500 5.44837500 0.00000000
315 3 9.08062500 3.63225000 1.81612500
316 1 7.26450000 5.44837500 1.81612500
317 1 7.26450000 3.63225000 3.63225000
318 2 9.08062500 5.44837500 3.63225000
319 1 9.08062500 3.63225000 5.44837500
320 3 7.26450000 5.44837500 5.44837500
321 1 7.26450000 3.63225000 7.26450000
322 1 9.08062500 5.44837500 7.26450000
323 3 9.08062500 3.63225000 9.08062500
324 1 7.26450000 5.44837500 9.08062500
325 3 7.26450000 3.63225000 10.89675000
326 1 9.08062500 5.44837500 10.89675000
327 1 9.08062500 3.63225000 12.71287500
328 1 7.26450000 5.44837500 12.71287500
329 1 7.26450000 3.63225000 14.52900000
330 1 9.08062500 5.44837500 14.52900000
331 3 9.08062500 3.63225000 16.34512500
332 3 7.26450000 5.44837500 16.34512500
333 3 7.26450000 3.63225000 18.16125000
334 1 9.08062500 5.44837500 18.16125000
335 3 9.08062500 3.63225000 19.97737500
336 2 7.26450000 5.44837500 19.97737500
337 1 7.26450000 7.26450000 0.00000000
338 1 9.08062500 9.08062500 0.00000000
339 1 9.08062500 7.26450000 1.81612500
340 1 7.26450000 9.08062500 1.81612500
341 2 7.26450000 7.26450000 3.63225000
342 1 9.08062500 9.08062500 3.63225000
343 2 9.08062500 7.26450000 5.44837500
344 1 7.26450000 9.08062500 5.44837500
345 1 7.26450000 7.26450000 7.26450000
346 1 9.08062500 9.08062500 7.26450000
347 2 9.08062500 7.26450000 9.08062500
348 1 7.26450000 9.08062500 9.08062500
349 1 7.26450000 7.26450000 10.89675000
350 2 9.08062500 9.08062500 10.89675000
351 1 9.08062500 7.26450000 12.71287500
352 2 7.26450000 9.08062500 12.71287500
353 3 7.26450000 7.26450000 14.52900000
354 1 9.08062500 9.08062500 14.52900000
355 2 9.08062500 7.26450000 16.34512500
356 1 7.26450000 9.08062500 16.34512500
357 2 7.26450000 7.26450000 18.16125000
358 1 9.08062500 9.08062500 18.16125000
359 2 9.08062500 7.26450000 19.97737500
360 1 7.26450000 9.08062500 19.97737500
361 2 7.26450000 10.89675000 0.00000000
362 1 9.08062500 12.71287500 0.00000000
363 1 9.08062500 10.89675000 1.81612500
364 2 7.26450000 12.71287500 1.81612500
365 1 7.26450000 10.89675000 3.63225000
366 2 9.08062500 12.71287500 3.63225000
367 3 9.08062500 10.89675000 5.44837500
368 1 7.26450000 12.71287500 5.44837500
369 1 7.26450000 10.89675000 7.26450000
370 1 9.08062500 12.71287500 7.26450000
371 1 9.08062500 10.89675000 9.08062500
372 1 7.26450000 12.71287500 9.08062500
373 3 7.26450000 10.89675000 10.89675000
374 2 9.08062500 12.71287500 10.89675000
375 1 9.08062500 10.89675000 12.71287500
376 1 7.26450000 12.71287500 12.71287500
377 3 7.26450000 10.89675000 14.52900000
378 1 9.08062500 12.71287500 14.52900000
379 1 9.08062500 10.89675000 16.34512500
380 3 7.26450000 12.71287500 16.34512500
381 1 7.26450000 10.89675000 18.16125000
382 1 9.08062500 12.71287500 18.16125000
383 1 9.08062500 10.89675000 19.97737500
384 1 7.26450000 12.71287500 19.97737500
385 1 7.26450000 14.52900000 0.00000000
386 1 9.08062500 16.34512500 0.00000000
387 3 9.08062500 14.52900000 1.81612500
388 1 7.26450000 16.34512500 1.81612500
389 2 7.26450000 14.52900000 3.63225000
390 3 9.08062500 16.34512500 3.63225000
391 1 9.08062500 14.52900000 5.44837500
392 3 7.26450000 16.34512500 5.44837500
393 2 7.26450000 14.52900000 7.26450000
394 1 9.08062500 16.34512500 7.26450000
395 2 9.08062500 14.52900000 9.08062500
396 1 7.26450000 16.34512500 9.08062500
397 1 7.26450000 14.52900000 10.89675000
398 2 9.08062500 16.34512500 10.89675000
399 3 9.08062500 14.52900000 12.71287500
400 1 7.26450000 16.34512500 12.71287500
401 3 7.26450000 14.52900000 14.52900000
402 3 9.08062500 16.34512500 14.52900000
403 1 9.08062500 14.52900000 16.34512500
404 3 7.26450000 16.34512500 16.34512500
405 3 7.26450000 14.52900000 18.16125000
406 1 9.08062500 16.34512500 18.16125000
407 1 9.08062500 14.52900000 19.97737500
408 1 7.26450000 16.34512500 19.97737500
409 2 7.26450000 18.16125000 0.00000000
410 3 9.08062500 19.97737500 0.00000000
411 2 9.08062500 18.16125000 1.81612500
412 2 7.26450000 19.97737500 1.81612500
413 3 7.26450000 18.16125000 3.63225000
414 1 9.08062500 19.97737500 3.63225000
415 2 9.08062500 18.16125000 5.44837500
416 1 7.26450000 19.97737500 5.44837500
417 2 7.26450000 18.16125000 7.26450000
418 2 9.08062500 19.97737500 7.26450000
419 1 9.08062500 18.16125000 9.08062500
420 1 7.26450000 19.97737500 9.08062500
421 3 7.26450000 18.16125000 10.89675000
422 2 9.08062500 19.97737500 10.89675000
423 1 9.08062500 18.16125000 12.71287500
424 1 7.26450000 19.97737500 12.71287500
425 1 7.26450000 18.16125000 14.52900000
426 2 9.08062500 19.97737500 14.52900000
427 1 9.08062500 18.16125000 16.34512500
428 3 7.26450000 19.97737500 16.34512500
429 3 7.26450000 18.16125000 18.16125000
430 2 9.08062500 19.97737500 18.16125000
431 3 9.08062500 18.16125000 19.97737500
432 1 7.26450000 19.97737500 19.97737500
433 1 10.89675000 0.00000000 0.00000000
434 2 12.71287500 1.81612500 0.00000000
435 2 12.71287500 0.00000000 1.81612500
436 1 10.89675000 1.81612500 1.81612500
437 2 10.89675000 0.00000000 3.63225000
438 3 12.71287500 1.81612500 3.63225000
439 1 12.71287500 0.00000000 5.44837500
440 3 10.89675000 1.81612500 5.44837500
441 3 10.89675000 0.00000000 7.26450000
442 1 12.71287500 1.81612500 7.26450000
443 3 12.71287500 0.00000000 9.08062500
444 2 10.89675000 1.81612500 9.08062500
445 3 10.89675000 0.00000000 10.89675000
446 2 12.71287500 1.81612500 10.89675000
447 1 12.71287500 0.00000000 12.71287500
448 1 10.89675000 1.81612500 12.71287500
449 1 10.89675000 0.00000000 14.52900000
450 1 12.71287500 1.81612500 14.52900000
451 2 12.71287500 0.00000000 16.34512500
452 3 10.89675000 1.81612500 16.34512500
453 1 10.89675000 0.00000000 18.16125000
454 1 12.71287500 1.81612500 18.16125000
455 3 12.71287500 0.00000000 19.97737500
456 3 10.89675000 1.81612500 19.97737500
457 3 10.89675000 3.63225000 0.00000000
458 3 12.71287500 5.44837500 0.00000000
459 1 12.71287500 3.63225000 1.81612500
460 2 10.89675000 5.44837500 1.81612500
461 3 10.89675000 3.63225000 3.63225000
462 3 12.71287500 5.44837500 3.63225000
463 1 12.71287500 3.63225000 5.44837500
464 1 10.89675000 5.44837500 5.44837500
465 1 10.89675000 3.63225000 7.26450000
466 1 12.71287500 5.44837500 7.26450000
467 1 12.71287500 3.63225000 9.08062500
468 1 10.89675000 5.44837500 9.08062500
469 2 10.89675000 3.63225000 10.89675000
470 1 12.71287500 5.44837500 10.89675000
471 1 12.71287500 3.63225000 12.71287500
472 3 10.89675000 5.44837500 12.71287500
473 3 10.89675000 3.63225000 14.52900000
474 3 12.71287500 5.44837500 14.52900000
475 1 12.71287500 3.63225000 16.34512500
476 1 10.89675000 5.44837500 16.34512500
477 1 10.89675000 3.63225000 18.16125000
478 3 12.71287500 5.44837500 18.16125000
479 2 12.71287500 3.63225000 19.97737500
480 3 10.89675000 5.44837500 19.97737500
481 2 10.89675000 7.26450000 0.00000000
482 1 12.71287500 9.08062500 0.00000000
483 1 12.71287500 7.26450000 1.81612500
484 1 10.89675000 9.08062500 1.81612500
485 2 10.89675000 7.26450000 3.63225000
486 3 12.71287500 9.08062500 3.63225000
487 3 12.71287500 7.26450000 5.44837500
488 1 10.89675000 9.08062500 5.44837500
489 3 10.89675000 7.26450000 7.26450000
490 3 12.71287500 9.08062500 7.26450000
491 2 12.71287500 7.26450000 9.08062500
492 1 10.89675000 9.08062500 9.08062500
493 1 10.89675000 7.26450000 10.89675000
494 2 12.71287500 9.08062500 10.89675000
495 2 12.71287500 7.26450000 12.71287500
496 3 10.89675000 9.08062500 12.71287500
497 1 10.89675000 7.26450000 14.52900000
498 1 12.71287500 9.08062500 14.52900000
499 1 12.71287500 7.26450000 16.34512500
500 3 10.89675000 9.08062500 16.34512500
501 3 10.89675000 7.26450000 18.16125000
502 1 12.71287500 9.08062500 18.16125000
503 3 12.71287500 7.26450000 19.97737500
504 2 10.89675000 9.08062500 19.97737500
505 1 10.89675000 10.89675000 0.00000000
506 3 12.71287500 12.71287500 0.00000000
507 1 12.71287500 10.89675000 1.81612500
508 3 10.89675000 12.71287500 1.81612500
509 1 10.89675000 10.89675000 3.63225000
510 1 12.71287500 12.71287500 3.63225000
511 2 12.71287500 10.89675000 5.44837500
512 1 10.89675000 12.71287500 5.44837500
513 2 10.89675000 10.89675000 7.26450000
514 3 12.71287500 12.71287500 7.26450000
515 1 12.71287500 10.89675000 9.08062500
516 1 10.89675000 12.71287500 9.08062500
517 2 10.89675000 10.89675000 10.89675000
518 1 12.71287500 12.71287500 10.89675000
519 3 12.71287500 10.89675000 12.71287500
520 2 10.89675000 12.71287500 12.71287500
521 2 10.89675000 10.89675000 14.52900000
522 2 12.71287500 12.71287500 14.52900000
523 3 12.71287500 10.89675000 16.34512500
524 2 10.89675000 12.71287500 16.34512500
525 3 10.89675000 10.89675000 18.16125000
526 1 12.71287500 12.71287500 18.16125000
527 1 12.71287500 10.89675000 19.97737500
528 3 10.89675000 12.71287500 19.97737500
529 1 10.89675000 14.52900000 0.00000000
530 1 12.71287500 16.34512500 0.00000000
531 1 12.71287500 14.52900000 1.81612500
532 1 10.89675000 16.34512500 1.81612500
533 1 10.89675000 14.52900000 3.63225000
534 1 12.71287500 16.34512500 3.63225000
535 3 12.71287500 14.52900000 5.44837500
536 1 10.89675000 16.34512500 5.44837500
537 1 10.89675000 14.52900000 7.26450000
538 3 12.71287500 16.34512500 7.26450000
539 1 12.71287500 14.52900000 9.08062500
540 2 10.89675000 16.34512500 9.08062500
541 1 10.89675000 14.52900000 10.89675000
542 2 12.71287500 16.34512500 10.89675000
543 1 12.71287500 14.52900000 12.71287500
544 3 10.89675000 16.34512500 12.71287500
545 1 10.89675000 14.52900000 14.52900000
546 3 12.71287500 16.34512500 14.52900000
547 1 12.71287500 14.52900000 16.34512500
548 1 10.89675000 16.34512500 16.34512500
549 2 10.89675000 14.52900000 18.16125000
550 1 12.71287500 16.34512500 18.16125000
551 1 12.71287500 14.52900000 19.97737500
552 3 10.89675000 16.34512500 19.97737500
553 1 10.89675000 18.16125000 0.00000000
554 2 12.71287500 19.97737500 0.00000000
555 3 12.71287500 18.16125000 1.81612500
556 1 10.89675000 19.97737500 1.81612500
557 2 10.89675000 18.16125000 3.63225000
558 1 12.71287500 19.97737500 3.63225000
559 1 12.71287500 18.16125000 5.44837500
560 2 10.89675000 19.97737500 5.44837500
561 3 10.89675000 18.16125000 7.26450000
562 1 12.71287500 19.97737500 7.26450000
563 1 12.71287500 18.16125000 9.08062500
564 2 10.89675000 19.97737500 9.08062500
565 1 10.89675000 18.16125000 10.89675000
566 3 12.71287500 19.97737500 10.89675000
567 3 12.71287500 18.16125000 12.71287500
568 3 10.89675000 19.97737500 12.71287500
569 3 10.89675000 18.16125000 14.52900000
570 3 12.71287500 19.97737500 14.52900000
571 3 12.71287500 18.16125000 16.34512500
572 3 10.89675000 19.97737500 16.34512500
573 1 10.89675000 18.16125000 18.16125000
574 2 12.71287500 19.97737500 18.16125000
575 1 12.71287500 18.16125000 19.97737500
576 1 10.89675000 19.97737500 19.97737500
577 3 14.52900000 0.00000000 0.00000000
578 1 16.34512500 1.81612500 0.00000000
579 3 16.34512500 0.00000000 1.81612500
580 1 14.52900000 1.81612500 1.81612500
581 1 14.52900000 0.00000000 3.63225000
582 2 16.34512500 1.81612500 3.63225000
583 2 16.34512500 0.00000000 5.44837500
584 1 14.52900000 1.81612500 5.44837500
585 1 14.52900000 0.00000000 7.26450000
586 3 16.34512500 1.81612500 7.26450000
587 1 16.34512500 0.00000000 9.08062500
588 2 14.52900000 1.81612500 9.08062500
589 1 14.52900000 0.00000000 10.89675000
590 3 16.34512500 1.81612500 10.89675000
591 2 16.34512500 0.00000000 12.71287500
592 3 14.52900000 1.81612500 12.71287500
593 1 14.52900000 0.00000000 14.52900000
594 1 16.34512500 1.81612500 14.52900000
595 1 16.34512500 0.00000000 16.34512500
596 1 14.52900000 1.81612500 16.34512500
597 3 14.52900000 0.00000000 18.16125000
598 3 16.34512500 1.81612500 18.16125000
599 1 16.34512500 0.00000000 19.97737500
600 1 14.52900000 1.81612500 19.97737500
601 2 14.52900000 3.63225000 0.00000000
602 3 16.34512500 5.44837500 0.00000000
603 3 16.34512500 3.63225000 1.81612500
604 2 14.52900000 5.44837500 1.81612500
605 1 14.52900000 3.63225000 3.63225000
606 1 16.34512500 5.44837500 3.63225000
607 1 16.34512500 3.63225000 5.44837500
608 1 14.52900000 5.44837500 5.44837500
609 1 14.52900000 3.63225000 7.26450000
610 3 16.34512500 5.44837500 7.26450000
611 3 16.34512500 3.63225000 9.08062500
612 3 14.52900000 5.44837500 9.08062500
613 1 14.52900000 3.63225000 10.89675000
614 2 16.34512500 5.44837500 10.89675000
615 1 16.34512500 3.63225000 12.71287500
616 3 14.52900000 5.44837500 12.71287500
617 2 14.52900000 3.63225000 14.52900000
618 1 16.34512500 5.44837500 14.52900000
619 2 16.34512500 3.63225000 16.34512500
620 1 14.52900000 5.44837500 16.34512500
621 2 14.52900000 3.63225000 18.16125000
622 3 16.34512500 5.44837500 18.16125000
623 3 16.34512500 3.63225000 19.97737500
624 3 14.52900000 5.44837500 19.97737500
625 3 14.52900000 7.26450000 0.00000000
626 1 16.34512500 9.08062500 0.00000000
627 2 16.34512500 7.26450000 1.81612500
628 3 14.52900000 9.08062500 1.81612500
629 2 14.52900000 7.26450000 3.63225000
630 2 16.34512500 9.08062500 3.63225000
631 1 16.34512500 7.26450000 5.44837500
632 2 14.52900000 9.08062500 5.44837500
633 2 14.52900000 7.26450000 7.26450000
634 1 16.34512500 9.08062500 7.26450000
635 2 16.34512500 7.26450000 9.08062500
636 1 14.52900000 9.08062500 9.08062500
637 1 14.52900000 7.26450000 10.89675000
638 1 16.34512500 9.08062500 10.89675000
639 1 16.34512500 7.26450000 12.71287500
640 3 14.52900000 9.08062500 12.71287500
641 1 14.52900000 7.26450000 14.52900000
642 3 16.34512500 9.08062500 14.52900000
643 3 16.34512500 7.26450000 16.34512500
644 1 14.52900000 9.08062500 16.34512500
645 2 14.52900000 7.26450000 18.16125000
646 2 16.34512500 9.08062500 18.16125000
647 1 16.34512500 7.26450000 19.97737500
648 1 14.52900000 9.08062500 19.97737500
649 1 14.52900000 10.89675000 0.00000000
650 1 16.34512500 12.71287500 0.00000000
651 1 16.34512500 10.89675000 1.81612500
652 3 14.52900000 12.71287500 1.81612500
653 1 14.52900000 10.89675000 3.63225000
654 3 16.34512500 12.71287500 3.63225000
655 1 16.34512500 10.89675000 5.44837500
656 1 14.52900000 12.71287500 5.44837500
657 3 14.52900000 10.89675000 7.26450000
658 2 16.34512500 12.71287500 7.26450000
659 1 16.34512500 10.89675000 9.08062500
660 2 14.52900000 12.71287500 9.08062500
661 2 14.52900000 10.89675000 10.89675000
662 1 16.34512500 12.71287500 10.89675000
663 1 16.34512500 10.89675000 12.71287500
664 3 14.52900000 12.71287500 12.71287500
665 1 14.52900000 10.89675000 14.52900000
666 1 16.34512500 12.71287500 14.52900000
667 1 16.34512500 10.89675000 16.34512500
668 3 14.52900000 12.71287500 16.34512500
669 1 14.52900000 10.89675000 18.16125000
670 2 16.34512500 12.71287500 18.16125000
671 2 16.34512500 10.89675000 19.97737500
672 3 14.52900000 12.71287500 19.97737500
673 2 14.52900000 14.52900000 0.00000000
674 1 16.34512500 16.34512500 0.00000000
675 1 16.34512500 14.52900000 1.81612500
676 1 14.52900000 16.34512500 1.81612500
677 1 14.52900000 14.52900000 3.63225000
678 3 16.34512500 16.34512500 3.63225000
679 2 16.34512500 14.52900000 5.44837500
680 1 14.52900000 16.34512500 5.44837500
681 1 14.52900000 14.52900000 7.26450000
682 3 16.34512500 16.34512500 7.26450000
683 1 16.34512500 14.52900000 9.08062500
684 2 14.52900000 16.34512500 9.08062500
685 3 14.52900000 14.52900000 10.89675000
686 2 16.34512500 16.34512500 10.89675000
687 3 16.34512500 14.52900000 12.71287500
688 2 14.52900000 16.34512500 12.71287500
689 1 14.52900000 14.52900000 14.52900000
690 1 16.34512500 16.34512500 14.52900000
691 1 16.34512500 14.52900000 16.34512500
692 1 14.52900000 16.34512500 16.34512500
693 3 14.52900000 14.52900000 18.16125000
694 2 16.34512500 16.34512500 18.16125000
695 1 16.34512500 14.52900000 19.97737500
696 1 14.52900000 16.34512500 19.97737500
697 3 14.52900000 18.16125000 0.00000000
698 2 16.34512500 19.97737500 0.00000000
699 2 16.34512500 18.16125000 1.81612500
700 3 14.52900000 19.97737500 1.81612500
701 1 14.52900000 18.16125000 3.63225000
702 3 16.34512500 19.97737500 3.63225000
703 1 16.34512500 18.16125000 5.44837500
704 1 14.52900000 19.97737500 5.44837500
705 2 14.52900000 18.16125000 7.26450000
706 2 16.34512500 19.97737500 7.26450000
707 3 16.34512500 18.16125000 9.08062500
708 1 14.52900000 19.97737500 9.08062500
709 2 14.52900000 18.16125000 10.89675000
710 1 16.34512500 19.97737500 10.89675000
711 3 16.34512500 18.16125000 12.71287500
712 1 14.52900000 19.97737500 12.71287500
713 3 14.52900000 18.16125000 14.52900000
714 1 16.34512500 19.97737500 14.52900000
715 1 16.34512500 18.16125000 16.34512500
716 3 14.52900000 19.97737500 16.34512500
717 2 14.52900000 18.16125000 18.16125000
718 1 16.34512500 19.97737500 18.16125000
719 1 16.34512500 18.16125000 19.97737500
720 1 14.52900000 19.97737500 19.97737500
721 2 18.16125000 0.00000000 0.00000000
722 2 19.97737500 1.81612500 0.00000000
723 2 19.97737500 0.00000000 1.81612500
724 2 18.16125000 1.81612500 1.81612500
725 2 18.16125000 0.00000000 3.63225000
726 3 19.97737500 1.81612500 3.63225000
727 3 19.97737500 0.00000000 5.44837500
728 1 18.16125000 1.81612500 5.44837500
729 3 18.16125000 0.00000000 7.26450000
730 1 19.97737500 1.81612500 7.26450000
731 1 19.97737500 0.00000000 9.08062500
732 1 18.16125000 1.81612500 9.08062500
733 2 18.16125000 0.00000000 10.89675000
734 1 19.97737500 1.81612500 10.89675000
735 3 19.97737500 0.00000000 12.71287500
736 3 18.16125000 1.81612500 12.71287500
737 1 18.16125000 0.00000000 14.52900000