# FCC structure - OPTIMIZED (smaller supercell)
# Composition: {'Al': 0.0, 'Co': 1.0, 'Cr': 0.0}
# Al-Cr-Co System (Group 1) - Assignment 2 - MM309

864 atoms
3 atom types

0.0 21.26400000 xlo xhi
0.0 21.26400000 ylo yhi
0.0 21.26400000 zlo zhi

Masses

1 26.9815  # Al
2 58.9332  # Co
3 51.9961  # Cr

Atoms # atomic

1 2 0.00000000 0.00000000 0.00000000
2 2 1.77200000 1.77200000 0.00000000
3 2 1.77200000 0.00000000 1.77200000
4 2 0.00000000 1.77200000 1.77200000
5 2 0.00000000 0.00000000 3.54400000
6 2 1.77200000 1.77200000 3.54400000
7 2 1.77200000 0.00000000 5.31600000
8 2 0.00000000 1.77200000 5.31600000
9 2 0.00000000 0.00000000 7.08800000
10 2 1.77200000 1.77200000 7.08800000
11 2 1.77200000 0.00000000 8.86000000
12 2 0.00000000 1.77200000 8.86000000
13 2 0.00000000 0.00000000 10.63200000
14 2 1.77200000 1.77200000 10.63200000
15 2 1.77200000 0.00000000 12.40400000
16 2 0.00000000 1.77200000 12.40400000
17 2 0.00000000 0.00000000 14.17600000
18 2 1.77200000 1.77200000 14.17600000
19 2 1.77200000 0.00000000 15.94800000
20 2 0.00000000 1.77200000 15.94800000
21 2 0.00000000 0.00000000 17.72000000
22 2 1.77200000 1.77200000 17.72000000
23 2 1.77200000 0.00000000 19.49200000
24 2 0.00000000 1.77200000 19.49200000
25 2 0.00000000 3.54400000 0.00000000
26 2 1.77200000 5.31600000 0.00000000
27 2 1.77200000 3.54400000 1.77200000
28 2 0.00000000 5.31600000 1.77200000
29 2 0.00000000 3.54400000 3.54400000
30 2 1.77200000 5.31600000 3.54400000
31 2 1.77200000 3.54400000 5.31600000
32 2 0.00000000 5.31600000 5.31600000
33 2 0.00000000 3.54400000 7.08800000
34 2 1.77200000 5.31600000 7.08800000
35 2 1.77200000 3.54400000 8.86000000
36 2 0.00000000 5.31600000 8.86000000
37 2 0.00000000 3.54400000 10.63200000
38 2 1.77200000 5.31600000 10.63200000
39 2 1.77200000 3.54400000 12.40400000
40 2 0.00000000 5.31600000 12.40400000
41 2 0.00000000 3.54400000 14.17600000
42 2 1.77200000 5.31600000 14.17600000
43 2 1.77200000 3.54400000 15.94800000
44 2 0.00000000 5.31600000 15.94800000
45 2 0.00000000 3.54400000 17.72000000
46 2 1.77200000 5.31600000 17.72000000
47 2 1.77200000 3.54400000 19.49200000
48 2 0.00000000 5.31600000 19.49200000
49 2 0.00000000 7.08800000 0.00000000
50 2 1.77200000 8.86000000 0.00000000
51 2 1.77200000 7.08800000 1.77200000
52 2 0.00000000 8.86000000 1.77200000
53 2 0.00000000 7.08800000 3.54400000
54 2 1.77200000 8.86000000 3.54400000
55 2 1.77200000 7.08800000 5.31600000
56 2 0.00000000 8.86000000 5.31600000
57 2 0.00000000 7.08800000 7.08800000
58 2 1.77200000 8.86000000 7.08800000
59 2 1.77200000 7.08800000 8.86000000
60 2 0.00000000 8.86000000 8.86000000
61 2 0.00000000 7.08800000 10.63200000
62 2 1.77200000 8.86000000 10.63200000
63 2 1.77200000 7.08800000 12.40400000
64 2 0.00000000 8.86000000 12.40400000
65 2 0.00000000 7.08800000 14.17600000
66 2 1.77200000 8.86000000 14.17600000
67 2 1.77200000 7.08800000 15.94800000
68 2 0.00000000 8.86000000 15.94800000
69 2 0.00000000 7.08800000 17.72000000
70 2 1.77200000 8.86000000 17.72000000
71 2 1.77200000 7.08800000 19.49200000
72 2 0.00000000 8.86000000 19.49200000
73 2 0.00000000 10.63200000 0.00000000
74 2 1.77200000 12.40400000 0.00000000
75 2 1.77200000 10.63200000 1.77200000
76 2 0.00000000 12.40400000 1.77200000
77 2 0.00000000 10.63200000 3.54400000
78 2 1.77200000 12.40400000 3.54400000
79 2 1.77200000 10.63200000 5.31600000
80 2 0.00000000 12.40400000 5.31600000
81 2 0.00000000 10.63200000 7.08800000
82 2 1.77200000 12.40400000 7.08800000
83 2 1.77200000 10.63200000 8.86000000
84 2 0.00000000 12.40400000 8.86000000
85 2 0.00000000 10.63200000 10.63200000
86 2 1.77200000 12.40400000 10.63200000
87 2 1.77200000 10.63200000 12.40400000
88 2 0.00000000 12.40400000 12.40400000
89 2 0.00000000 10.63200000 14.17600000
90 2 1.77200000 12.40400000 14.17600000
91 2 1.77200000 10.63200000 15.94800000
92 2 0.00000000 12.40400000 15.94800000
93 2 0.00000000 10.63200000 17.72000000
94 2 1.77200000 12.40400000 17.72000000
95 2 1.77200000 10.63200000 19.49200000
96 2 0.00000000 12.40400000 19.49200000
97 2 0.00000000 14.17600000 0.00000000
98 2 1.77200000 15.94800000 0.00000000
99 2 1.77200000 14.17600000 1.77200000
100 2 0.00000000 15.94800000 1.77200000
101 2 0.00000000 14.17600000 3.54400000
102 2 1.77200000 15.94800000 3.54400000
103 2 1.77200000 14.17600000 5.31600000
104 2 0.00000000 15.94800000 5.31600000
105 2 0.00000000 14.17600000 7.08800000
106 2 1.77200000 15.94800000 7.08800000
107 2 1.77200000 14.17600000 8.86000000
108 2 0.00000000 15.94800000 8.86000000
109 2 0.00000000 14.17600000 10.63200000
110 2 1.77200000 15.94800000 10.63200000
111 2 1.77200000 14.17600000 12.40400000
112 2 0.00000000 15.94800000 12.40400000
113 2 0.00000000 14.17600000 14.17600000
114 2 1.77200000 15.94800000 14.17600000
115 2 1.77200000 14.17600000 15.94800000
116 2 0.00000000 15.94800000 15.94800000
117 2 0.00000000 14.17600000 17.72000000
118 2 1.77200000 15.94800000 17.72000000
119 2 1.77200000 14.17600000 19.49200000
120 2 0.00000000 15.94800000 19.49200000
121 2 0.00000000 17.72000000 0.00000000
122 2 1.77200000 19.49200000 0.00000000
123 2 1.77200000 17.72000000 1.77200000
124 2 0.00000000 19.49200000 1.77200000
125 2 0.00000000 17.72000000 3.54400000
126 2 1.77200000 19.49200000 3.54400000
127 2 1.77200000 17.72000000 5.31600000
128 2 0.00000000 19.49200000 5.31600000
129 2 0.00000000 17.72000000 7.08800000
130 2 1.77200000 19.49200000 7.08800000
131 2 1.77200000 17.72000000 8.86000000
132 2 0.00000000 19.49200000 8.86000000
133 2 0.00000000 17.72000000 10.63200000
134 2 1.77200000 19.49200000 10.63200000
135 2 1.77200000 17.72000000 12.40400000
136 2 0.00000000 19.49200000 12.40400000
137 2 0.00000000 17.72000000 14.17600000
138 2 1.77200000 19.49200000 14.17600000
139 2 1.77200000 17.72000000 15.94800000
140 2 0.00000000 19.49200000 15.94800000
141 2 0.00000000 17.72000000 17.72000000
142 2 1.77200000 19.49200000 17.72000000
143 2 1.77200000 17.72000000 19.49200000
144 2 0.00000000 19.49200000 19.49200000
145 2 3.54400000 0.00000000 0.00000000
146 2 5.31600000 1.77200000 0.00000000
147 2 5.31600000 0.00000000 1.77200000
148 2 3.54400000 1.77200000 1.77200000
149 2 3.54400000 0.00000000 3.54400000
150 2 5.31600000 1.77200000 3.54400000
151 2 5.31600000 0.00000000 5.31600000
152 2 3.54400000 1.77200000 5.31600000
153 2 3.54400000 0.00000000 7.08800000
154 2 5.31600000 1.77200000 7.08800000
155 2 5.31600000 0.00000000 8.86000000
156 2 3.54400000 1.77200000 8.86000000
157 2 3.54400000 0.00000000 10.63200000
158 2 5.31600000 1.77200000 10.63200000
159 2 5.31600000 0.00000000 12.40400000
160 2 3.54400000 1.77200000 12.40400000
161 2 3.54400000 0.00000000 14.17600000
162 2 5.31600000 1.77200000 14.17600000
163 2 5.31600000 0.00000000 15.94800000
164 2 3.54400000 1.77200000 15.94800000
165 2 3.54400000 0.00000000 17.72000000
166 2 5.31600000 1.77200000 17.72000000
167 2 5.31600000 0.00000000 19.49200000
168 2 3.54400000 1.77200000 19.49200000
169 2 3.54400000 3.54400000 0.00000000
170 2 5.31600000 5.31600000 0.00000000
171 2 5.31600000 3.54400000 1.77200000
172 2 3.54400000 5.31600000 1.77200000
173 2 3.54400000 3.54400000 3.54400000
174 2 5.31600000 5.31600000 3.54400000
175 2 5.31600000 3.54400000 5.31600000
176 2 3.54400000 5.31600000 5.31600000
177 2 3.54400000 3.54400000 7.08800000
178 2 5.31600000 5.31600000 7.08800000
179 2 5.31600000 3.54400000 8.86000000
180 2 3.54400000 5.31600000 8.86000000
181 2 3.54400000 3.54400000 10.63200000
182 2 5.31600000 5.31600000 10.63200000
183 2 5.31600000 3.54400000 12.40400000
184 2 3.54400000 5.31600000 12.40400000
185 2 3.54400000 3.54400000 14.17600000
186 2 5.31600000 5.31600000 14.17600000
187 2 5.31600000 3.54400000 15.94800000
188 2 3.54400000 5.31600000 15.94800000
189 2 3.54400000 3.54400000 17.72000000
190 2 5.31600000 5.31600000 17.72000000
191 2 5.31600000 3.54400000 19.49200000
192 2 3.54400000 5.31600000 19.49200000
193 2 3.54400000 7.08800000 0.00000000
194 2 5.31600000 8.86000000 0.00000000
195 2 5.31600000 7.08800000 1.77200000
196 2 3.54400000 8.86000000 1.77200000
197 2 3.54400000 7.08800000 3.54400000
198 2 5.31600000 8.86000000 3.54400000
199 2 5.31600000 7.08800000 5.31600000
200 2 3.54400000 8.86000000 5.31600000
201 2 3.54400000 7.08800000 7.08800000
202 2 5.31600000 8.86000000 7.08800000
203 2 5.31600000 7.08800000 8.86000000
204 2 3.54400000 8.86000000 8.86000000
205 2 3.54400000 7.08800000 10.63200000
206 2 5.31600000 8.86000000 10.63200000
207 2 5.31600000 7.08800000 12.40400000
208 2 3.54400000 8.86000000 12.40400000
209 2 3.54400000 7.08800000 14.17600000
210 2 5.31600000 8.86000000 14.17600000
211 2 5.31600000 7.08800000 15.94800000
212 2 3.54400000 8.86000000 15.94800000
213 2 3.54400000 7.08800000 17.72000000
214 2 5.31600000 8.86000000 17.72000000
215 2 5.31600000 7.08800000 19.49200000
216 2 3.54400000 8.86000000 19.49200000
217 2 3.54400000 10.63200000 0.00000000
218 2 5.31600000 12.40400000 0.00000000
219 2 5.31600000 10.63200000 1.77200000
220 2 3.54400000 12.40400000 1.77200000
221 2 3.54400000 10.63200000 3.54400000
222 2 5.31600000 12.40400000 3.54400000
223 2 5.31600000 10.63200000 5.31600000
224 2 3.54400000 12.40400000 5.31600000
225 2 3.54400000 10.63200000 7.08800000
226 2 5.31600000 12.40400000 7.08800000
227 2 5.31600000 10.63200000 8.86000000
228 2 3.54400000 12.40400000 8.86000000
229 2 3.54400000 10.63200000 10.63200000
230 2 5.31600000 12.40400000 10.63200000
231 2 5.31600000 10.63200000 12.40400000
232 2 3.54400000 12.40400000 12.40400000
233 2 3.54400000 10.63200000 14.17600000
234 2 5.31600000 12.40400000 14.17600000
235 2 5.31600000 10.63200000 15.94800000
236 2 3.54400000 12.40400000 15.94800000
237 2 3.54400000 10.63200000 17.72000000
238 2 5.31600000 12.40400000 17.72000000
239 2 5.31600000 10.63200000 19.49200000
240 2 3.54400000 12.40400000 19.49200000
241 2 3.54400000 14.17600000 0.00000000
242 2 5.31600000 15.94800000 0.00000000
243 2 5.31600000 14.17600000 1.77200000
244 2 3.54400000 15.94800000 1.77200000
245 2 3.54400000 14.17600000 3.54400000
246 2 5.31600000 15.94800000 3.54400000
247 2 5.31600000 14.17600000 5.31600000
248 2 3.54400000 15.94800000 5.31600000
249 2 3.54400000 14.17600000 7.08800000
250 2 5.31600000 15.94800000 7.08800000
251 2 5.31600000 14.17600000 8.86000000
252 2 3.54400000 15.94800000 8.86000000
253 2 3.54400000 14.17600000 10.63200000
254 2 5.31600000 15.94800000 10.63200000
255 2 5.31600000 14.17600000 12.40400000
256 2 3.54400000 15.94800000 12.40400000
257 2 3.54400000 14.17600000 14.17600000
258 2 5.31600000 15.94800000 14.17600000
259 2 5.31600000 14.17600000 15.94800000
260 2 3.54400000 15.94800000 15.94800000
261 2 3.54400000 14.17600000 17.72000000
262 2 5.31600000 15.94800000 17.72000000
263 2 5.31600000 14.17600000 19.49200000
264 2 3.54400000 15.94800000 19.49200000
265 2 3.54400000 17.72000000 0.00000000
266 2 5.31600000 19.49200000 0.00000000
267 2 5.31600000 17.72000000 1.77200000
268 2 3.54400000 19.49200000 1.77200000
269 2 3.54400000 17.72000000 3.54400000
270 2 5.31600000 19.49200000 3.54400000
271 2 5.31600000 17.72000000 5.31600000
272 2 3.54400000 19.49200000 5.31600000
273 2 3.54400000 17.72000000 7.08800000
274 2 5.31600000 19.49200000 7.08800000
275 2 5.31600000 17.72000000 8.86000000
276 2 3.54400000 19.49200000 8.86000000
277 2 3.54400000 17.72000000 10.63200000
278 2 5.31600000 19.49200000 10.63200000
279 2 5.31600000 17.72000000 12.40400000
280 2 3.54400000 19.49200000 12.40400000
281 2 3.54400000 17.72000000 14.17600000
282 2 5.31600000 19.49200000 14.17600000
283 2 5.31600000 17.72000000 15.94800000
284 2 3.54400000 19.49200000 15.94800000
285 2 3.54400000 17.72000000 17.72000000
286 2 5.31600000 19.49200000 17.72000000
287 2 5.31600000 17.72000000 19.49200000
288 2 3.54400000 19.49200000 19.49200000
289 2 7.08800000 0.00000000 0.00000000
290 2 8.86000000 1.77200000 0.00000000
291 2 8.86000000 0.00000000 1.77200000
292 2 7.08800000 1.77200000 1.77200000
293 2 7.08800000 0.00000000 3.54400000
294 2 8.86000000 1.77200000 3.54400000
295 2 8.86000000 0.00000000 5.31600000
296 2 7.08800000 1.77200000 5.31600000
297 2 7.08800000 0.00000000 7.08800000
298 2 8.86000000 1.77200000 7.08800000
299 2 8.86000000 0.00000000 8.86000000
300 2 7.08800000 1.77200000 8.86000000
301 2 7.08800000 0.00000000 10.63200000
302 2 8.86000000 1.77200000 10.63200000
303 2 8.86000000 0.00000000 12.40400000
304 2 7.08800000 1.77200000 12.40400000
305 2 7.08800000 0.00000000 14.17600000
306 2 8.86000000 1.77200000 14.17600000
307 2 8.86000000 0.00000000 15.94800000
308 2 7.08800000 1.77200000 15.94800000
309 2 7.08800000 0.00000000 17.72000000
310 2 8.86000000 1.77200000 17.72000000
311 2 8.86000000 0.00000000 19.49200000
312 2 7.08800000 1.77200000 19.49200000
313 2 7.08800000 3.54400000 0.00000000
314 2 8.86000000 5.31600000 0.00000000
315 2 8.86000000 3.54400000 1.77200000
316 2 7.08800000 5.31600000 1.77200000
317 2 7.08800000 3.54400000 3.54400000
318 2 8.86000000 5.31600000 3.54400000
319 2 8.86000000 3.54400000 5.31600000
320 2 7.08800000 5.31600000 5.31600000
321 2 7.08800000 3.54400000 7.08800000
322 2 8.86000000 5.31600000 7.08800000
323 2 8.86000000 3.54400000 8.86000000
324 2 7.08800000 5.31600000 8.86000000
325 2 7.08800000 3.54400000 10.63200000
326 2 8.86000000 5.31600000 10.63200000
327 2 8.86000000 3.54400000 12.40400000
328 2 7.08800000 5.31600000 12.40400000
329 2 7.08800000 3.54400000 14.17600000
330 2 8.86000000 5.31600000 14.17600000
331 2 8.86000000 3.54400000 15.94800000
332 2 7.08800000 5.31600000 15.94800000
333 2 7.08800000 3.54400000 17.72000000
334 2 8.86000000 5.31600000 17.72000000
335 2 8.86000000 3.54400000 19.49200000
336 2 7.08800000 5.31600000 19.49200000
337 2 7.08800000 7.08800000 0.00000000
338 2 8.86000000 8.86000000 0.00000000
339 2 8.86000000 7.08800000 1.77200000
340 2 7.08800000 8.86000000 1.77200000
341 2 7.08800000 7.08800000 3.54400000
342 2 8.86000000 8.86000000 3.54400000
343 2 8.86000000 7.08800000 5.31600000
344 2 7.08800000 8.86000000 5.31600000
345 2 7.08800000 7.08800000 7.08800000
346 2 8.86000000 8.86000000 7.08800000
347 2 8.86000000 7.08800000 8.86000000
348 2 7.08800000 8.86000000 8.86000000
349 2 7.08800000 7.08800000 10.63200000
350 2 8.86000000 8.86000000 10.63200000
351 2 8.86000000 7.08800000 12.40400000
352 2 7.08800000 8.86000000 12.40400000
353 2 7.08800000 7.08800000 14.17600000
354 2 8.86000000 8.86000000 14.17600000
355 2 8.86000000 7.08800000 15.94800000
356 2 7.08800000 8.86000000 15.94800000
357 2 7.08800000 7.08800000 17.72000000
358 2 8.86000000 8.86000000 17.72000000
359 2 8.86000000 7.08800000 19.49200000
360 2 7.08800000 8.86000000 19.49200000
361 2 7.08800000 10.63200000 0.00000000
362 2 8.86000000 12.40400000 0.00000000
363 2 8.86000000 10.63200000 1.77200000
364 2 7.08800000 12.40400000 1.77200000
365 2 7.08800000 10.63200000 3.54400000
366 2 8.86000000 12.40400000 3.54400000
367 2 8.86000000 10.63200000 5.31600000
368 2 7.08800000 12.40400000 5.31600000
369 2 7.08800000 10.63200000 7.08800000
370 2 8.86000000 12.40400000 7.08800000
371 2 8.86000000 10.63200000 8.86000000
372 2 7.08800000 12.40400000 8.86000000
373 2 7.08800000 10.63200000 10.63200000
374 2 8.86000000 12.40400000 10.63200000
375 2 8.86000000 10.63200000 12.40400000
376 2 7.08800000 12.40400000 12.40400000
377 2 7.08800000 10.63200000 14.17600000
378 2 8.86000000 12.40400000 14.17600000
379 2 8.86000000 10.63200000 15.94800000
380 2 7.08800000 12.40400000 15.94800000
381 2 7.08800000 10.63200000 17.72000000
382 2 8.86000000 12.40400000 17.72000000
383 2 8.86000000 10.63200000 19.49200000
384 2 7.08800000 12.40400000 19.49200000
385 2 7.08800000 14.17600000 0.00000000
386 2 8.86000000 15.94800000 0.00000000
387 2 8.86000000 14.17600000 1.77200000
388 2 7.08800000 15.94800000 1.77200000
389 2 7.08800000 14.17600000 3.54400000
390 2 8.86000000 15.94800000 3.54400000
391 2 8.86000000 14.17600000 5.31600000
392 2 7.08800000 15.94800000 5.31600000
393 2 7.08800000 14.17600000 7.08800000
394 2 8.86000000 15.94800000 7.08800000
395 2 8.86000000 14.17600000 8.86000000
396 2 7.08800000 15.94800000 8.86000000
397 2 7.08800000 14.17600000 10.63200000
398 2 8.86000000 15.94800000 10.63200000
399 2 8.86000000 14.17600000 12.40400000
400 2 7.08800000 15.94800000 12.40400000
401 2 7.08800000 14.17600000 14.17600000
402 2 8.86000000 15.94800000 14.17600000
403 2 8.86000000 14.17600000 15.94800000
404 2 7.08800000 15.94800000 15.94800000
405 2 7.08800000 14.17600000 17.72000000
406 2 8.86000000 15.94800000 17.72000000
407 2 8.86000000 14.17600000 19.49200000
408 2 7.08800000 15.94800000 19.49200000
409 2 7.08800000 17.72000000 0.00000000
410 2 8.86000000 19.49200000 0.00000000
411 2 8.86000000 17.72000000 1.77200000
412 2 7.08800000 19.49200000 1.77200000
413 2 7.08800000 17.72000000 3.54400000
414 2 8.86000000 19.49200000 3.54400000
415 2 8.86000000 17.72000000 5.31600000
416 2 7.08800000 19.49200000 5.31600000
417 2 7.08800000 17.72000000 7.08800000
418 2 8.86000000 19.49200000 7.08800000
419 2 8.86000000 17.72000000 8.86000000
420 2 7.08800000 19.49200000 8.86000000
421 2 7.08800000 17.72000000 10.63200000
422 2 8.86000000 19.49200000 10.63200000
423 2 8.86000000 17.72000000 12.40400000
424 2 7.08800000 19.49200000 12.40400000
425 2 7.08800000 17.72000000 14.17600000
426 2 8.86000000 19.49200000 14.17600000
427 2 8.86000000 17.72000000 15.94800000
428 2 7.08800000 19.49200000 15.94800000
429 2 7.08800000 17.72000000 17.72000000
430 2 8.86000000 19.49200000 17.72000000
431 2 8.86000000 17.72000000 19.49200000
432 2 7.08800000 19.49200000 19.49200000
433 2 10.63200000 0.00000000 0.00000000
434 2 12.40400000 1.77200000 0.00000000
435 2 12.40400000 0.00000000 1.77200000
436 2 10.63200000 1.77200000 1.77200000
437 2 10.63200000 0.00000000 3.54400000
438 2 12.40400000 1.77200000 3.54400000
439 2 12.40400000 0.00000000 5.31600000
440 2 10.63200000 1.77200000 5.31600000
441 2 10.63200000 0.00000000 7.08800000
442 2 12.40400000 1.77200000 7.08800000
443 2 12.40400000 0.00000000 8.86000000
444 2 10.63200000 1.77200000 8.86000000
445 2 10.63200000 0.00000000 10.63200000
446 2 12.40400000 1.77200000 10.63200000
447 2 12.40400000 0.00000000 12.40400000
448 2 10.63200000 1.77200000 12.40400000
449 2 10.63200000 0.00000000 14.17600000
450 2 12.40400000 1.77200000 14.17600000
451 2 12.40400000 0.00000000 15.94800000
452 2 10.63200000 1.77200000 15.94800000
453 2 10.63200000 0.00000000 17.72000000
454 2 12.40400000 1.77200000 17.72000000
455 2 12.40400000 0.00000000 19.49200000
456 2 10.63200000 1.77200000 19.49200000
457 2 10.63200000 3.54400000 0.00000000
458 2 12.40400000 5.31600000 0.00000000
459 2 12.40400000 3.54400000 1.77200000
460 2 10.63200000 5.31600000 1.77200000
461 2 10.63200000 3.54400000 3.54400000
462 2 12.40400000 5.31600000 3.54400000
463 2 12.40400000 3.54400000 5.31600000
464 2 10.63200000 5.31600000 5.31600000
465 2 10.63200000 3.54400000 7.08800000
466 2 12.40400000 5.31600000 7.08800000
467 2 12.40400000 3.54400000 8.86000000
468 2 10.63200000 5.31600000 8.86000000
469 2 10.63200000 3.54400000 10.63200000
470 2 12.40400000 5.31600000 10.63200000
471 2 12.40400000 3.54400000 12.40400000
472 2 10.63200000 5.31600000 12.40400000
473 2 10.63200000 3.54400000 14.17600000
474 2 12.40400000 5.31600000 14.17600000
475 2 12.40400000 3.54400000 15.94800000
476 2 10.63200000 5.31600000 15.94800000
477 2 10.63200000 3.54400000 17.72000000
478 2 12.40400000 5.31600000 17.72000000
479 2 12.40400000 3.54400000 19.49200000
480 2 10.63200000 5.31600000 19.49200000
481 2 10.63200000 7.08800000 0.00000000
482 2 12.40400000 8.86000000 0.00000000
483 2 12.40400000 7.08800000 1.77200000
484 2 10.63200000 8.86000000 1.77200000
485 2 10.63200000 7.08800000 3.54400000
486 2 12.40400000 8.86000000 3.54400000
487 2 12.40400000 7.08800000 5.31600000
488 2 10.63200000 8.86000000 5.31600000
489 2 10.63200000 7.08800000 7.08800000
490 2 12.40400000 8.86000000 7.08800000
491 2 12.40400000 7.08800000 8.86000000
492 2 10.63200000 8.86000000 8.86000000
493 2 10.63200000 7.08800000 10.63200000
494 2 12.40400000 8.86000000 10.63200000
495 2 12.40400000 7.08800000 12.40400000
496 2 10.63200000 8.86000000 12.40400000
497 2 10.63200000 7.08800000 14.17600000
498 2 12.40400000 8.86000000 14.17600000
499 2 12.40400000 7.08800000 15.94800000
500 2 10.63200000 8.86000000 15.94800000
501 2 10.63200000 7.08800000 17.72000000
502 2 12.40400000 8.86000000 17.72000000
503 2 12.40400000 7.08800000 19.49200000
504 2 10.63200000 8.86000000 19.49200000
505 2 10.63200000 10.63200000 0.00000000
506 2 12.40400000 12.40400000 0.00000000
507 2 12.40400000 10.63200000 1.77200000
508 2 10.63200000 12.40400000 1.77200000
509 2 10.63200000 10.63200000 3.54400000
510 2 12.40400000 12.40400000 3.54400000
511 2 12.40400000 10.63200000 5.31600000
512 2 10.63200000 12.40400000 5.31600000
513 2 10.63200000 10.63200000 7.08800000
514 2 12.40400000 12.40400000 7.08800000
515 2 12.40400000 10.63200000 8.86000000
516 2 10.63200000 12.40400000 8.86000000
517 2 10.63200000 10.63200000 10.63200000
518 2 12.40400000 12.40400000 10.63200000
519 2 12.40400000 10.63200000 12.40400000
520 2 10.63200000 12.40400000 12.40400000
521 2 10.63200000 10.63200000 14.17600000
522 2 12.40400000 12.40400000 14.17600000
523 2 12.40400000 10.63200000 15.94800000
524 2 10.63200000 12.40400000 15.94800000
525 2 10.63200000 10.63200000 17.72000000
526 2 12.40400000 12.40400000 17.72000000
527 2 12.40400000 10.63200000 19.49200000
528 2 10.63200000 12.40400000 19.49200000
529 2 10.63200000 14.17600000 0.00000000
530 2 12.40400000 15.94800000 0.00000000
531 2 12.40400000 14.17600000 1.77200000
532 2 10.63200000 15.94800000 1.77200000
533 2 10.63200000 14.17600000 3.54400000
534 2 12.40400000 15.94800000 3.54400000
535 2 12.40400000 14.17600000 5.31600000
536 2 10.63200000 15.94800000 5.31600000
537 2 10.63200000 14.17600000 7.08800000
538 2 12.40400000 15.94800000 7.08800000
539 2 12.40400000 14.17600000 8.86000000
540 2 10.63200000 15.94800000 8.86000000
541 2 10.63200000 14.17600000 10.63200000
542 2 12.40400000 15.94800000 10.63200000
543 2 12.40400000 14.17600000 12.40400000
544 2 10.63200000 15.94800000 12.40400000
545 2 10.63200000 14.17600000 14.17600000
546 2 12.40400000 15.94800000 14.17600000
547 2 12.40400000 14.17600000 15.94800000
548 2 10.63200000 15.94800000 15.94800000
549 2 10.63200000 14.17600000 17.72000000
550 2 12.40400000 15.94800000 17.72000000
551 2 12.40400000 14.17600000 19.49200000
552 2 10.63200000 15.94800000 19.49200000
553 2 10.63200000 17.72000000 0.00000000
554 2 12.40400000 19.49200000 0.00000000
555 2 12.40400000 17.72000000 1.77200000
556 2 10.63200000 19.49200000 1.77200000
557 2 10.63200000 17.72000000 3.54400000
558 2 12.40400000 19.49200000 3.54400000
559 2 12.40400000 17.72000000 5.31600000
560 2 10.63200000 19.49200000 5.31600000
561 2 10.63200000 17.72000000 7.08800000
562 2 12.40400000 19.49200000 7.08800000
563 2 12.40400000 17.72000000 8.86000000
564 2 10.63200000 19.49200000 8.86000000
565 2 10.63200000 17.72000000 10.63200000
566 2 12.40400000 19.49200000 10.63200000
567 2 12.40400000 17.72000000 12.40400000
568 2 10.63200000 19.49200000 12.40400000
569 2 10.63200000 17.72000000 14.17600000
570 2 12.40400000 19.49200000 14.17600000
571 2 12.40400000 17.72000000 15.94800000
572 2 10.63200000 19.49200000 15.94800000
573 2 10.63200000 17.72000000 17.72000000
574 2 12.40400000 19.49200000 17.72000000
575 2 12.40400000 17.72000000 19.49200000
576 2 10.63200000 19.49200000 19.49200000
577 2 14.17600000 0.00000000 0.00000000
578 2 15.94800000 1.77200000 0.00000000
579 2 15.94800000 0.00000000 1.77200000
580 2 14.17600000 1.77200000 1.77200000
581 2 14.17600000 0.00000000 3.54400000
582 2 15.94800000 1.77200000 3.54400000
583 2 15.94800000 0.00000000 5.31600000
584 2 14.17600000 1.77200000 5.31600000
585 2 14.17600000 0.00000000 7.08800000
586 2 15.94800000 1.77200000 7.08800000
587 2 15.94800000 0.00000000 8.86000000
588 2 14.17600000 1.77200000 8.86000000
589 2 14.17600000 0.00000000 10.63200000
590 2 15.94800000 1.77200000 10.63200000
591 2 15.94800000 0.00000000 12.40400000
592 2 14.17600000 1.77200000 12.40400000
593 2 14.17600000 0.00000000 14.17600000
594 2 15.94800000 1.77200000 14.17600000
595 2 15.94800000 0.00000000 15.94800000
596 2 14.17600000 1.77200000 15.94800000
597 2 14.17600000 0.00000000 17.72000000
598 2 15.94800000 1.77200000 17.72000000
599 2 15.94800000 0.00000000 19.49200000
600 2 14.17600000 1.77200000 19.49200000
601 2 14.17600000 3.54400000 0.00000000
602 2 15.94800000 5.31600000 0.00000000
603 2 15.94800000 3.54400000 1.77200000
604 2 14.17600000 5.31600000 1.77200000
605 2 14.17600000 3.54400000 3.54400000
606 2 15.94800000 5.31600000 3.54400000
607 2 15.94800000 3.54400000 5.31600000
608 2 14.17600000 5.31600000 5.31600000
609 2 14.17600000 3.54400000 7.08800000
610 2 15.94800000 5.31600000 7.08800000
611 2 15.94800000 3.54400000 8.86000000
612 2 14.17600000 5.31600000 8.86000000
613 2 14.17600000 3.54400000 10.63200000
614 2 15.94800000 5.31600000 10.63200000
615 2 15.94800000 3.54400000 12.40400000
616 2 14.17600000 5.31600000 12.40400000
617 2 14.17600000 3.54400000 14.17600000
618 2 15.94800000 5.31600000 14.17600000
619 2 15.94800000 3.54400000 15.94800000
620 2 14.17600000 5.31600000 15.94800000
621 2 14.17600000 3.54400000 17.72000000
622 2 15.94800000 5.31600000 17.72000000
623 2 15.94800000 3.54400000 19.49200000
624 2 14.17600000 5.31600000 19.49200000
625 2 14.17600000 7.08800000 0.00000000
626 2 15.94800000 8.86000000 0.00000000
627 2 15.94800000 7.08800000 1.77200000
628 2 14.17600000 8.86000000 1.77200000
629 2 14.17600000 7.08800000 3.54400000
630 2 15.94800000 8.86000000 3.54400000
631 2 15.94800000 7.08800000 5.31600000
632 2 14.17600000 8.86000000 5.31600000
633 2 14.17600000 7.08800000 7.08800000
634 2 15.94800000 8.86000000 7.08800000
635 2 15.94800000 7.08800000 8.86000000
636 2 14.17600000 8.86000000 8.86000000
637 2 14.17600000 7.08800000 10.63200000
638 2 15.94800000 8.86000000 10.63200000
639 2 15.94800000 7.08800000 12.40400000
640 2 14.17600000 8.86000000 12.40400000
641 2 14.17600000 7.08800000 14.17600000
642 2 15.94800000 8.86000000 14.17600000
643 2 15.94800000 7.08800000 15.94800000
644 2 14.17600000 8.86000000 15.94800000
645 2 14.17600000 7.08800000 17.72000000
646 2 15.94800000 8.86000000 17.72000000
647 2 15.94800000 7.08800000 19.49200000
648 2 14.17600000 8.86000000 19.49200000
649 2 14.17600000 10.63200000 0.00000000
650 2 15.94800000 12.40400000 0.00000000
651 2 15.94800000 10.63200000 1.77200000
652 2 14.17600000 12.40400000 1.77200000
653 2 14.17600000 10.63200000 3.54400000
654 2 15.94800000 12.40400000 3.54400000
655 2 15.94800000 10.63200000 5.31600000
656 2 14.17600000 12.40400000 5.31600000
657 2 14.17600000 10.63200000 7.08800000
658 2 15.94800000 12.40400000 7.08800000
659 2 15.94800000 10.63200000 8.86000000
660 2 14.17600000 12.40400000 8.86000000
661 2 14.17600000 10.63200000 10.63200000
662 2 15.94800000 12.40400000 10.63200000
663 2 15.94800000 10.63200000 12.40400000
664 2 14.17600000 12.40400000 12.40400000
665 2 14.17600000 10.63200000 14.17600000
666 2 15.94800000 12.40400000 14.17600000
667 2 15.94800000 10.63200000 15.94800000
668 2 14.17600000 12.40400000 15.94800000
669 2 14.17600000 10.63200000 17.72000000
670 2 15.94800000 12.40400000 17.72000000
671 2 15.94800000 10.63200000 19.49200000
672 2 14.17600000 12.40400000 19.49200000
673 2 14.17600000 14.17600000 0.00000000
674 2 15.94800000 15.94800000 0.00000000
675 2 15.94800000 14.17600000 1.77200000
676 2 14.17600000 15.94800000 1.77200000
677 2 14.17600000 14.17600000 3.54400000
678 2 15.94800000 15.94800000 3.54400000
679 2 15.94800000 14.17600000 5.31600000
680 2 14.17600000 15.94800000 5.31600000
681 2 14.17600000 14.17600000 7.08800000
682 2 15.94800000 15.94800000 7.08800000
683 2 15.94800000 14.17600000 8.86000000
684 2 14.17600000 15.94800000 8.86000000
685 2 14.17600000 14.17600000 10.63200000
686 2 15.94800000 15.94800000 10.63200000
687 2 15.94800000 14.17600000 12.40400000
688 2 14.17600000 15.94800000 12.40400000
689 2 14.17600000 14.17600000 14.17600000
690 2 15.94800000 15.94800000 14.17600000
691 2 15.94800000 14.17600000 15.94800000
692 2 14.17600000 15.94800000 15.94800000
693 2 14.17600000 14.17600000 17.72000000
694 2 15.94800000 15.94800000 17.72000000
695 2 15.94800000 14.17600000 19.49200000
696 2 14.17600000 15.94800000 19.49200000
697 2 14.17600000 17.72000000 0.00000000
698 2 15.94800000 19.49200000 0.00000000
699 2 15.94800000 17.72000000 1.77200000
700 2 14.17600000 19.49200000 1.77200000
701 2 14.17600000 17.72000000 3.54400000
702 2 15.94800000 19.49200000 3.54400000
703 2 15.94800000 17.72000000 5.31600000
704 2 14.17600000 19.49200000 5.31600000
705 2 14.17600000 17.72000000 7.08800000
706 2 15.94800000 19.49200000 7.08800000
707 2 15.94800000 17.72000000 8.86000000
708 2 14.17600000 19.49200000 8.86000000
709 2 14.17600000 17.72000000 10.63200000
710 2 15.94800000 19.49200000 10.63200000
711 2 15.94800000 17.72000000 12.40400000
712 2 14.17600000 19.49200000 12.40400000
713 2 14.17600000 17.72000000 14.17600000
714 2 15.94800000 19.49200000 14.17600000
715 2 15.94800000 17.72000000 15.94800000
716 2 14.17600000 19.49200000 15.94800000
717 2 14.17600000 17.72000000 17.72000000
718 2 15.94800000 19.49200000 17.72000000
719 2 15.94800000 17.72000000 19.49200000
720 2 14.17600000 19.49200000 19.49200000
721 2 17.72000000 0.00000000 0.00000000
722 2 19.49200000 1.77200000 0.00000000
723 2 19.49200000 0.00000000 1.77200000
724 2 17.72000000 1.77200000 1.77200000
725 2 17.72000000 0.00000000 3.54400000
726 2 19.49200000 1.77200000 3.54400000
727 2 19.49200000 0.00000000 5.31600000
728 2 17.72000000 1.77200000 5.31600000
729 2 17.72000000 0.00000000 7.08800000
730 2 19.49200000 1.77200000 7.08800000
731 2 19.49200000 0.00000000 8.86000000
732 2 17.72000000 1.77200000 8.86000000
733 2 17.72000000 0.00000000 10.63200000
734 2 19.49200000 1.77200000 10.63200000
735 2 19.49200000 0.00000000 12.40400000
736 2 17.72000000 1.77200000 12.40400000
737 2 17.72000000 0.00000000 14.17600000