# FCC structure - OPTIMIZED (smaller supercell)
# Composition: {'Al': 0.5, 'Co': 0.5, 'Cr': 0.0}
# Al-Cr-Co System (Group 1) - Assignment 2 - MM309

864 atoms
3 atom types

0.0 22.78200000 xlo xhi
0.0 22.78200000 ylo yhi
0.0 22.78200000 zlo zhi

Masses

1 26.9815  # Al
2 58.9332  # Co
3 51.9961  # Cr

Atoms # atomic

1 1 0.00000000 0.00000000 0.00000000
2 2 1.89850000 1.89850000 0.00000000
3 2 1.89850000 0.00000000 1.89850000
4 1 0.00000000 1.89850000 1.89850000
5 2 0.00000000 0.00000000 3.79700000
6 1 1.89850000 1.89850000 3.79700000
7 2 1.89850000 0.00000000 5.69550000
8 1 0.00000000 1.89850000 5.69550000
9 1 0.00000000 0.00000000 7.59400000
10 1 1.89850000 1.89850000 7.59400000
11 1 1.89850000 0.00000000 9.49250000
12 2 0.00000000 1.89850000 9.49250000
13 2 0.00000000 0.00000000 11.39100000
14 1 1.89850000 1.89850000 11.39100000
15 1 1.89850000 0.00000000 13.28950000
16 2 0.00000000 1.89850000 13.28950000
17 1 0.00000000 0.00000000 15.18800000
18 2 1.89850000 1.89850000 15.18800000
19 1 1.89850000 0.00000000 17.08650000
20 1 0.00000000 1.89850000 17.08650000
21 1 0.00000000 0.00000000 18.98500000
22 2 1.89850000 1.89850000 18.98500000
23 2 1.89850000 0.00000000 20.88350000
24 2 0.00000000 1.89850000 20.88350000
25 1 0.00000000 3.79700000 0.00000000
26 2 1.89850000 5.69550000 0.00000000
27 2 1.89850000 3.79700000 1.89850000
28 1 0.00000000 5.69550000 1.89850000
29 2 0.00000000 3.79700000 3.79700000
30 1 1.89850000 5.69550000 3.79700000
31 1 1.89850000 3.79700000 5.69550000
32 1 0.00000000 5.69550000 5.69550000
33 2 0.00000000 3.79700000 7.59400000
34 1 1.89850000 5.69550000 7.59400000
35 1 1.89850000 3.79700000 9.49250000
36 2 0.00000000 5.69550000 9.49250000
37 1 0.00000000 3.79700000 11.39100000
38 1 1.89850000 5.69550000 11.39100000
39 2 1.89850000 3.79700000 13.28950000
40 1 0.00000000 5.69550000 13.28950000
41 1 0.00000000 3.79700000 15.18800000
42 1 1.89850000 5.69550000 15.18800000
43 2 1.89850000 3.79700000 17.08650000
44 1 0.00000000 5.69550000 17.08650000
45 1 0.00000000 3.79700000 18.98500000
46 2 1.89850000 5.69550000 18.98500000
47 1 1.89850000 3.79700000 20.88350000
48 2 0.00000000 5.69550000 20.88350000
49 1 0.00000000 7.59400000 0.00000000
50 2 1.89850000 9.49250000 0.00000000
51 1 1.89850000 7.59400000 1.89850000
52 2 0.00000000 9.49250000 1.89850000
53 2 0.00000000 7.59400000 3.79700000
54 1 1.89850000 9.49250000 3.79700000
55 2 1.89850000 7.59400000 5.69550000
56 2 0.00000000 9.49250000 5.69550000
57 2 0.00000000 7.59400000 7.59400000
58 2 1.89850000 9.49250000 7.59400000
59 1 1.89850000 7.59400000 9.49250000
60 2 0.00000000 9.49250000 9.49250000
61 1 0.00000000 7.59400000 11.39100000
62 1 1.89850000 9.49250000 11.39100000
63 1 1.89850000 7.59400000 13.28950000
64 1 0.00000000 9.49250000 13.28950000
65 2 0.00000000 7.59400000 15.18800000
66 2 1.89850000 9.49250000 15.18800000
67 1 1.89850000 7.59400000 17.08650000
68 2 0.00000000 9.49250000 17.08650000
69 2 0.00000000 7.59400000 18.98500000
70 1 1.89850000 9.49250000 18.98500000
71 1 1.89850000 7.59400000 20.88350000
72 2 0.00000000 9.49250000 20.88350000
73 1 0.00000000 11.39100000 0.00000000
74 2 1.89850000 13.28950000 0.00000000
75 1 1.89850000 11.39100000 1.89850000
76 1 0.00000000 13.28950000 1.89850000
77 2 0.00000000 11.39100000 3.79700000
78 2 1.89850000 13.28950000 3.79700000
79 2 1.89850000 11.39100000 5.69550000
80 2 0.00000000 13.28950000 5.69550000
81 1 0.00000000 11.39100000 7.59400000
82 1 1.89850000 13.28950000 7.59400000
83 1 1.89850000 11.39100000 9.49250000
84 2 0.00000000 13.28950000 9.49250000
85 2 0.00000000 11.39100000 11.39100000
86 2 1.89850000 13.28950000 11.39100000
87 2 1.89850000 11.39100000 13.28950000
88 1 0.00000000 13.28950000 13.28950000
89 1 0.00000000 11.39100000 15.18800000
90 2 1.89850000 13.28950000 15.18800000
91 1 1.89850000 11.39100000 17.08650000
92 1 0.00000000 13.28950000 17.08650000
93 2 0.00000000 11.39100000 18.98500000
94 2 1.89850000 13.28950000 18.98500000
95 1 1.89850000 11.39100000 20.88350000
96 1 0.00000000 13.28950000 20.88350000
97 2 0.00000000 15.18800000 0.00000000
98 1 1.89850000 17.08650000 0.00000000
99 1 1.89850000 15.18800000 1.89850000
100 2 0.00000000 17.08650000 1.89850000
101 2 0.00000000 15.18800000 3.79700000
102 2 1.89850000 17.08650000 3.79700000
103 1 1.89850000 15.18800000 5.69550000
104 1 0.00000000 17.08650000 5.69550000
105 2 0.00000000 15.18800000 7.59400000
106 2 1.89850000 17.08650000 7.59400000
107 2 1.89850000 15.18800000 9.49250000
108 1 0.00000000 17.08650000 9.49250000
109 2 0.00000000 15.18800000 11.39100000
110 1 1.89850000 17.08650000 11.39100000
111 1 1.89850000 15.18800000 13.28950000
112 2 0.00000000 17.08650000 13.28950000
113 2 0.00000000 15.18800000 15.18800000
114 1 1.89850000 17.08650000 15.18800000
115 2 1.89850000 15.18800000 17.08650000
116 1 0.00000000 17.08650000 17.08650000
117 2 0.00000000 15.18800000 18.98500000
118 2 1.89850000 17.08650000 18.98500000
119 1 1.89850000 15.18800000 20.88350000
120 1 0.00000000 17.08650000 20.88350000
121 2 0.00000000 18.98500000 0.00000000
122 2 1.89850000 20.88350000 0.00000000
123 1 1.89850000 18.98500000 1.89850000
124 1 0.00000000 20.88350000 1.89850000
125 1 0.00000000 18.98500000 3.79700000
126 2 1.89850000 20.88350000 3.79700000
127 2 1.89850000 18.98500000 5.69550000
128 2 0.00000000 20.88350000 5.69550000
129 1 0.00000000 18.98500000 7.59400000
130 1 1.89850000 20.88350000 7.59400000
131 2 1.89850000 18.98500000 9.49250000
132 2 0.00000000 20.88350000 9.49250000
133 1 0.00000000 18.98500000 11.39100000
134 2 1.89850000 20.88350000 11.39100000
135 1 1.89850000 18.98500000 13.28950000
136 2 0.00000000 20.88350000 13.28950000
137 1 0.00000000 18.98500000 15.18800000
138 1 1.89850000 20.88350000 15.18800000
139 1 1.89850000 18.98500000 17.08650000
140 1 0.00000000 20.88350000 17.08650000
141 1 0.00000000 18.98500000 18.98500000
142 1 1.89850000 20.88350000 18.98500000
143 1 1.89850000 18.98500000 20.88350000
144 1 0.00000000 20.88350000 20.88350000
145 2 3.79700000 0.00000000 0.00000000
146 1 5.69550000 1.89850000 0.00000000
147 2 5.69550000 0.00000000 1.89850000
148 2 3.79700000 1.89850000 1.89850000
149 2 3.79700000 0.00000000 3.79700000
150 1 5.69550000 1.89850000 3.79700000
151 1 5.69550000 0.00000000 5.69550000
152 2 3.79700000 1.89850000 5.69550000
153 1 3.79700000 0.00000000 7.59400000
154 2 5.69550000 1.89850000 7.59400000
155 2 5.69550000 0.00000000 9.49250000
156 2 3.79700000 1.89850000 9.49250000
157 1 3.79700000 0.00000000 11.39100000
158 1 5.69550000 1.89850000 11.39100000
159 1 5.69550000 0.00000000 13.28950000
160 2 3.79700000 1.89850000 13.28950000
161 2 3.79700000 0.00000000 15.18800000
162 2 5.69550000 1.89850000 15.18800000
163 2 5.69550000 0.00000000 17.08650000
164 2 3.79700000 1.89850000 17.08650000
165 1 3.79700000 0.00000000 18.98500000
166 2 5.69550000 1.89850000 18.98500000
167 1 5.69550000 0.00000000 20.88350000
168 1 3.79700000 1.89850000 20.88350000
169 1 3.79700000 3.79700000 0.00000000
170 1 5.69550000 5.69550000 0.00000000
171 1 5.69550000 3.79700000 1.89850000
172 1 3.79700000 5.69550000 1.89850000
173 1 3.79700000 3.79700000 3.79700000
174 2 5.69550000 5.69550000 3.79700000
175 1 5.69550000 3.79700000 5.69550000
176 1 3.79700000 5.69550000 5.69550000
177 2 3.79700000 3.79700000 7.59400000
178 2 5.69550000 5.69550000 7.59400000
179 2 5.69550000 3.79700000 9.49250000
180 1 3.79700000 5.69550000 9.49250000
181 1 3.79700000 3.79700000 11.39100000
182 2 5.69550000 5.69550000 11.39100000
183 1 5.69550000 3.79700000 13.28950000
184 2 3.79700000 5.69550000 13.28950000
185 2 3.79700000 3.79700000 15.18800000
186 1 5.69550000 5.69550000 15.18800000
187 2 5.69550000 3.79700000 17.08650000
188 2 3.79700000 5.69550000 17.08650000
189 2 3.79700000 3.79700000 18.98500000
190 2 5.69550000 5.69550000 18.98500000
191 1 5.69550000 3.79700000 20.88350000
192 1 3.79700000 5.69550000 20.88350000
193 1 3.79700000 7.59400000 0.00000000
194 1 5.69550000 9.49250000 0.00000000
195 1 5.69550000 7.59400000 1.89850000
196 1 3.79700000 9.49250000 1.89850000
197 2 3.79700000 7.59400000 3.79700000
198 1 5.69550000 9.49250000 3.79700000
199 2 5.69550000 7.59400000 5.69550000
200 2 3.79700000 9.49250000 5.69550000
201 1 3.79700000 7.59400000 7.59400000
202 2 5.69550000 9.49250000 7.59400000
203 2 5.69550000 7.59400000 9.49250000
204 2 3.79700000 9.49250000 9.49250000
205 2 3.79700000 7.59400000 11.39100000
206 2 5.69550000 9.49250000 11.39100000
207 2 5.69550000 7.59400000 13.28950000
208 1 3.79700000 9.49250000 13.28950000
209 2 3.79700000 7.59400000 15.18800000
210 2 5.69550000 9.49250000 15.18800000
211 1 5.69550000 7.59400000 17.08650000
212 2 3.79700000 9.49250000 17.08650000
213 1 3.79700000 7.59400000 18.98500000
214 2 5.69550000 9.49250000 18.98500000
215 1 5.69550000 7.59400000 20.88350000
216 1 3.79700000 9.49250000 20.88350000
217 1 3.79700000 11.39100000 0.00000000
218 1 5.69550000 13.28950000 0.00000000
219 2 5.69550000 11.39100000 1.89850000
220 1 3.79700000 13.28950000 1.89850000
221 2 3.79700000 11.39100000 3.79700000
222 1 5.69550000 13.28950000 3.79700000
223 2 5.69550000 11.39100000 5.69550000
224 1 3.79700000 13.28950000 5.69550000
225 2 3.79700000 11.39100000 7.59400000
226 1 5.69550000 13.28950000 7.59400000
227 2 5.69550000 11.39100000 9.49250000
228 1 3.79700000 13.28950000 9.49250000
229 1 3.79700000 11.39100000 11.39100000
230 2 5.69550000 13.28950000 11.39100000
231 2 5.69550000 11.39100000 13.28950000
232 1 3.79700000 13.28950000 13.28950000
233 1 3.79700000 11.39100000 15.18800000
234 1 5.69550000 13.28950000 15.18800000
235 1 5.69550000 11.39100000 17.08650000
236 1 3.79700000 13.28950000 17.08650000
237 2 3.79700000 11.39100000 18.98500000
238 1 5.69550000 13.28950000 18.98500000
239 2 5.69550000 11.39100000 20.88350000
240 1 3.79700000 13.28950000 20.88350000
241 2 3.79700000 15.18800000 0.00000000
242 2 5.69550000 17.08650000 0.00000000
243 1 5.69550000 15.18800000 1.89850000
244 1 3.79700000 17.08650000 1.89850000
245 2 3.79700000 15.18800000 3.79700000
246 2 5.69550000 17.08650000 3.79700000
247 2 5.69550000 15.18800000 5.69550000
248 2 3.79700000 17.08650000 5.69550000
249 2 3.79700000 15.18800000 7.59400000
250 1 5.69550000 17.08650000 7.59400000
251 2 5.69550000 15.18800000 9.49250000
252 1 3.79700000 17.08650000 9.49250000
253 1 3.79700000 15.18800000 11.39100000
254 2 5.69550000 17.08650000 11.39100000
255 2 5.69550000 15.18800000 13.28950000
256 1 3.79700000 17.08650000 13.28950000
257 1 3.79700000 15.18800000 15.18800000
258 1 5.69550000 17.08650000 15.18800000
259 1 5.69550000 15.18800000 17.08650000
260 1 3.79700000 17.08650000 17.08650000
261 2 3.79700000 15.18800000 18.98500000
262 2 5.69550000 17.08650000 18.98500000
263 2 5.69550000 15.18800000 20.88350000
264 2 3.79700000 17.08650000 20.88350000
265 1 3.79700000 18.98500000 0.00000000
266 1 5.69550000 20.88350000 0.00000000
267 1 5.69550000 18.98500000 1.89850000
268 2 3.79700000 20.88350000 1.89850000
269 1 3.79700000 18.98500000 3.79700000
270 1 5.69550000 20.88350000 3.79700000
271 2 5.69550000 18.98500000 5.69550000
272 1 3.79700000 20.88350000 5.69550000
273 1 3.79700000 18.98500000 7.59400000
274 2 5.69550000 20.88350000 7.59400000
275 1 5.69550000 18.98500000 9.49250000
276 1 3.79700000 20.88350000 9.49250000
277 1 3.79700000 18.98500000 11.39100000
278 1 5.69550000 20.88350000 11.39100000
279 2 5.69550000 18.98500000 13.28950000
280 1 3.79700000 20.88350000 13.28950000
281 1 3.79700000 18.98500000 15.18800000
282 1 5.69550000 20.88350000 15.18800000
283 2 5.69550000 18.98500000 17.08650000
284 1 3.79700000 20.88350000 17.08650000
285 2 3.79700000 18.98500000 18.98500000
286 2 5.69550000 20.88350000 18.98500000
287 1 5.69550000 18.98500000 20.88350000
288 2 3.79700000 20.88350000 20.88350000
289 2 7.59400000 0.00000000 0.00000000
290 1 9.49250000 1.89850000 0.00000000
291 2 9.49250000 0.00000000 1.89850000
292 1 7.59400000 1.89850000 1.89850000
293 1 7.59400000 0.00000000 3.79700000
294 1 9.49250000 1.89850000 3.79700000
295 1 9.49250000 0.00000000 5.69550000
296 1 7.59400000 1.89850000 5.69550000
297 2 7.59400000 0.00000000 7.59400000
298 1 9.49250000 1.89850000 7.59400000
299 1 9.49250000 0.00000000 9.49250000
300 1 7.59400000 1.89850000 9.49250000
301 2 7.59400000 0.00000000 11.39100000
302 2 9.49250000 1.89850000 11.39100000
303 2 9.49250000 0.00000000 13.28950000
304 2 7.59400000 1.89850000 13.28950000
305 1 7.59400000 0.00000000 15.18800000
306 2 9.49250000 1.89850000 15.18800000
307 2 9.49250000 0.00000000 17.08650000
308 2 7.59400000 1.89850000 17.08650000
309 1 7.59400000 0.00000000 18.98500000
310 2 9.49250000 1.89850000 18.98500000
311 1 9.49250000 0.00000000 20.88350000
312 2 7.59400000 1.89850000 20.88350000
313 1 7.59400000 3.79700000 0.00000000
314 1 9.49250000 5.69550000 0.00000000
315 2 9.49250000 3.79700000 1.89850000
316 2 7.59400000 5.69550000 1.89850000
317 2 7.59400000 3.79700000 3.79700000
318 2 9.49250000 5.69550000 3.79700000
319 1 9.49250000 3.79700000 5.69550000
320 2 7.59400000 5.69550000 5.69550000
321 1 7.59400000 3.79700000 7.59400000
322 2 9.49250000 5.69550000 7.59400000
323 1 9.49250000 3.79700000 9.49250000
324 1 7.59400000 5.69550000 9.49250000
325 1 7.59400000 3.79700000 11.39100000
326 1 9.49250000 5.69550000 11.39100000
327 2 9.49250000 3.79700000 13.28950000
328 1 7.59400000 5.69550000 13.28950000
329 1 7.59400000 3.79700000 15.18800000
330 1 9.49250000 5.69550000 15.18800000
331 2 9.49250000 3.79700000 17.08650000
332 1 7.59400000 5.69550000 17.08650000
333 1 7.59400000 3.79700000 18.98500000
334 2 9.49250000 5.69550000 18.98500000
335 2 9.49250000 3.79700000 20.88350000
336 2 7.59400000 5.69550000 20.88350000
337 2 7.59400000 7.59400000 0.00000000
338 1 9.49250000 9.49250000 0.00000000
339 1 9.49250000 7.59400000 1.89850000
340 1 7.59400000 9.49250000 1.89850000
341 2 7.59400000 7.59400000 3.79700000
342 2 9.49250000 9.49250000 3.79700000
343 1 9.49250000 7.59400000 5.69550000
344 2 7.59400000 9.49250000 5.69550000
345 2 7.59400000 7.59400000 7.59400000
346 2 9.49250000 9.49250000 7.59400000
347 2 9.49250000 7.59400000 9.49250000
348 2 7.59400000 9.49250000 9.49250000
349 2 7.59400000 7.59400000 11.39100000
350 2 9.49250000 9.49250000 11.39100000
351 1 9.49250000 7.59400000 13.28950000
352 1 7.59400000 9.49250000 13.28950000
353 2 7.59400000 7.59400000 15.18800000
354 2 9.49250000 9.49250000 15.18800000
355 2 9.49250000 7.59400000 17.08650000
356 1 7.59400000 9.49250000 17.08650000
357 1 7.59400000 7.59400000 18.98500000
358 2 9.49250000 9.49250000 18.98500000
359 2 9.49250000 7.59400000 20.88350000
360 2 7.59400000 9.49250000 20.88350000
361 1 7.59400000 11.39100000 0.00000000
362 2 9.49250000 13.28950000 0.00000000
363 1 9.49250000 11.39100000 1.89850000
364 2 7.59400000 13.28950000 1.89850000
365 2 7.59400000 11.39100000 3.79700000
366 1 9.49250000 13.28950000 3.79700000
367 2 9.49250000 11.39100000 5.69550000
368 2 7.59400000 13.28950000 5.69550000
369 1 7.59400000 11.39100000 7.59400000
370 1 9.49250000 13.28950000 7.59400000
371 2 9.49250000 11.39100000 9.49250000
372 1 7.59400000 13.28950000 9.49250000
373 2 7.59400000 11.39100000 11.39100000
374 1 9.49250000 13.28950000 11.39100000
375 1 9.49250000 11.39100000 13.28950000
376 1 7.59400000 13.28950000 13.28950000
377 2 7.59400000 11.39100000 15.18800000
378 2 9.49250000 13.28950000 15.18800000
379 1 9.49250000 11.39100000 17.08650000
380 1 7.59400000 13.28950000 17.08650000
381 1 7.59400000 11.39100000 18.98500000
382 1 9.49250000 13.28950000 18.98500000
383 2 9.49250000 11.39100000 20.88350000
384 1 7.59400000 13.28950000 20.88350000
385 1 7.59400000 15.18800000 0.00000000
386 2 9.49250000 17.08650000 0.00000000
387 1 9.49250000 15.18800000 1.89850000
388 2 7.59400000 17.08650000 1.89850000
389 2 7.59400000 15.18800000 3.79700000
390 2 9.49250000 17.08650000 3.79700000
391 1 9.49250000 15.18800000 5.69550000
392 1 7.59400000 17.08650000 5.69550000
393 2 7.59400000 15.18800000 7.59400000
394 1 9.49250000 17.08650000 7.59400000
395 1 9.49250000 15.18800000 9.49250000
396 1 7.59400000 17.08650000 9.49250000
397 1 7.59400000 15.18800000 11.39100000
398 1 9.49250000 17.08650000 11.39100000
399 1 9.49250000 15.18800000 13.28950000
400 2 7.59400000 17.08650000 13.28950000
401 2 7.59400000 15.18800000 15.18800000
402 2 9.49250000 17.08650000 15.18800000
403 1 9.49250000 15.18800000 17.08650000
404 2 7.59400000 17.08650000 17.08650000
405 2 7.59400000 15.18800000 18.98500000
406 1 9.49250000 17.08650000 18.98500000
407 1 9.49250000 15.18800000 20.88350000
408 2 7.59400000 17.08650000 20.88350000
409 1 7.59400000 18.98500000 0.00000000
410 1 9.49250000 20.88350000 0.00000000
411 1 9.49250000 18.98500000 1.89850000
412 2 7.59400000 20.88350000 1.89850000
413 2 7.59400000 18.98500000 3.79700000
414 1 9.49250000 20.88350000 3.79700000
415 2 9.49250000 18.98500000 5.69550000
416 1 7.59400000 20.88350000 5.69550000
417 2 7.59400000 18.98500000 7.59400000
418 1 9.49250000 20.88350000 7.59400000
419 1 9.49250000 18.98500000 9.49250000
420 1 7.59400000 20.88350000 9.49250000
421 2 7.59400000 18.98500000 11.39100000
422 2 9.49250000 20.88350000 11.39100000
423 1 9.49250000 18.98500000 13.28950000
424 2 7.59400000 20.88350000 13.28950000
425 1 7.59400000 18.98500000 15.18800000
426 1 9.49250000 20.88350000 15.18800000
427 1 9.49250000 18.98500000 17.08650000
428 1 7.59400000 20.88350000 17.08650000
429 2 7.59400000 18.98500000 18.98500000
430 1 9.49250000 20.88350000 18.98500000
431 1 9.49250000 18.98500000 20.88350000
432 2 7.59400000 20.88350000 20.88350000
433 1 11.39100000 0.00000000 0.00000000
434 1 13.28950000 1.89850000 0.00000000
435 2 13.28950000 0.00000000 1.89850000
436 2 11.39100000 1.89850000 1.89850000
437 1 11.39100000 0.00000000 3.79700000
438 2 13.28950000 1.89850000 3.79700000
439 1 13.28950000 0.00000000 5.69550000
440 2 11.39100000 1.89850000 5.69550000
441 2 11.39100000 0.00000000 7.59400000
442 1 13.28950000 1.89850000 7.59400000
443 2 13.28950000 0.00000000 9.49250000
444 2 11.39100000 1.89850000 9.49250000
445 2 11.39100000 0.00000000 11.39100000
446 1 13.28950000 1.89850000 11.39100000
447 1 13.28950000 0.00000000 13.28950000
448 2 11.39100000 1.89850000 13.28950000
449 1 11.39100000 0.00000000 15.18800000
450 1 13.28950000 1.89850000 15.18800000
451 2 13.28950000 0.00000000 17.08650000
452 1 11.39100000 1.89850000 17.08650000
453 2 11.39100000 0.00000000 18.98500000
454 2 13.28950000 1.89850000 18.98500000
455 1 13.28950000 0.00000000 20.88350000
456 2 11.39100000 1.89850000 20.88350000
457 2 11.39100000 3.79700000 0.00000000
458 1 13.28950000 5.69550000 0.00000000
459 2 13.28950000 3.79700000 1.89850000
460 2 11.39100000 5.69550000 1.89850000
461 1 11.39100000 3.79700000 3.79700000
462 2 13.28950000 5.69550000 3.79700000
463 1 13.28950000 3.79700000 5.69550000
464 2 11.39100000 5.69550000 5.69550000
465 1 11.39100000 3.79700000 7.59400000
466 1 13.28950000 5.69550000 7.59400000
467 1 13.28950000 3.79700000 9.49250000
468 2 11.39100000 5.69550000 9.49250000
469 2 11.39100000 3.79700000 11.39100000
470 1 13.28950000 5.69550000 11.39100000
471 1 13.28950000 3.79700000 13.28950000
472 2 11.39100000 5.69550000 13.28950000
473 2 11.39100000 3.79700000 15.18800000
474 1 13.28950000 5.69550000 15.18800000
475 1 13.28950000 3.79700000 17.08650000
476 1 11.39100000 5.69550000 17.08650000
477 1 11.39100000 3.79700000 18.98500000
478 1 13.28950000 5.69550000 18.98500000
479 2 13.28950000 3.79700000 20.88350000
480 2 11.39100000 5.69550000 20.88350000
481 2 11.39100000 7.59400000 0.00000000
482 2 13.28950000 9.49250000 0.00000000
483 1 13.28950000 7.59400000 1.89850000
484 2 11.39100000 9.49250000 1.89850000
485 2 11.39100000 7.59400000 3.79700000
486 2 13.28950000 9.49250000 3.79700000
487 2 13.28950000 7.59400000 5.69550000
488 2 11.39100000 9.49250000 5.69550000
489 1 11.39100000 7.59400000 7.59400000
490 2 13.28950000 9.49250000 7.59400000
491 1 13.28950000 7.59400000 9.49250000
492 1 11.39100000 9.49250000 9.49250000
493 2 11.39100000 7.59400000 11.39100000
494 1 13.28950000 9.49250000 11.39100000
495 1 13.28950000 7.59400000 13.28950000
496 2 11.39100000 9.49250000 13.28950000
497 2 11.39100000 7.59400000 15.18800000
498 2 13.28950000 9.49250000 15.18800000
499 1 13.28950000 7.59400000 17.08650000
500 2 11.39100000 9.49250000 17.08650000
501 2 11.39100000 7.59400000 18.98500000
502 1 13.28950000 9.49250000 18.98500000
503 1 13.28950000 7.59400000 20.88350000
504 1 11.39100000 9.49250000 20.88350000
505 1 11.39100000 11.39100000 0.00000000
506 2 13.28950000 13.28950000 0.00000000
507 2 13.28950000 11.39100000 1.89850000
508 1 11.39100000 13.28950000 1.89850000
509 1 11.39100000 11.39100000 3.79700000
510 2 13.28950000 13.28950000 3.79700000
511 1 13.28950000 11.39100000 5.69550000
512 1 11.39100000 13.28950000 5.69550000
513 2 11.39100000 11.39100000 7.59400000
514 1 13.28950000 13.28950000 7.59400000
515 1 13.28950000 11.39100000 9.49250000
516 2 11.39100000 13.28950000 9.49250000
517 1 11.39100000 11.39100000 11.39100000
518 1 13.28950000 13.28950000 11.39100000
519 1 13.28950000 11.39100000 13.28950000
520 2 11.39100000 13.28950000 13.28950000
521 1 11.39100000 11.39100000 15.18800000
522 1 13.28950000 13.28950000 15.18800000
523 2 13.28950000 11.39100000 17.08650000
524 2 11.39100000 13.28950000 17.08650000
525 1 11.39100000 11.39100000 18.98500000
526 1 13.28950000 13.28950000 18.98500000
527 1 13.28950000 11.39100000 20.88350000
528 1 11.39100000 13.28950000 20.88350000
529 1 11.39100000 15.18800000 0.00000000
530 2 13.28950000 17.08650000 0.00000000
531 2 13.28950000 15.18800000 1.89850000
532 1 11.39100000 17.08650000 1.89850000
533 2 11.39100000 15.18800000 3.79700000
534 1 13.28950000 17.08650000 3.79700000
535 2 13.28950000 15.18800000 5.69550000
536 2 11.39100000 17.08650000 5.69550000
537 2 11.39100000 15.18800000 7.59400000
538 2 13.28950000 17.08650000 7.59400000
539 1 13.28950000 15.18800000 9.49250000
540 2 11.39100000 17.08650000 9.49250000
541 2 11.39100000 15.18800000 11.39100000
542 2 13.28950000 17.08650000 11.39100000
543 2 13.28950000 15.18800000 13.28950000
544 2 11.39100000 17.08650000 13.28950000
545 1 11.39100000 15.18800000 15.18800000
546 1 13.28950000 17.08650000 15.18800000
547 1 13.28950000 15.18800000 17.08650000
548 1 11.39100000 17.08650000 17.08650000
549 1 11.39100000 15.18800000 18.98500000
550 1 13.28950000 17.08650000 18.98500000
551 1 13.28950000 15.18800000 20.88350000
552 1 11.39100000 17.08650000 20.88350000
553 1 11.39100000 18.98500000 0.00000000
554 2 13.28950000 20.88350000 0.00000000
555 2 13.28950000 18.98500000 1.89850000
556 2 11.39100000 20.88350000 1.89850000
557 2 11.39100000 18.98500000 3.79700000
558 1 13.28950000 20.88350000 3.79700000
559 1 13.28950000 18.98500000 5.69550000
560 2 11.39100000 20.88350000 5.69550000
561 1 11.39100000 18.98500000 7.59400000
562 1 13.28950000 20.88350000 7.59400000
563 1 13.28950000 18.98500000 9.49250000
564 1 11.39100000 20.88350000 9.49250000
565 2 11.39100000 18.98500000 11.39100000
566 1 13.28950000 20.88350000 11.39100000
567 2 13.28950000 18.98500000 13.28950000
568 2 11.39100000 20.88350000 13.28950000
569 1 11.39100000 18.98500000 15.18800000
570 1 13.28950000 20.88350000 15.18800000
571 1 13.28950000 18.98500000 17.08650000
572 1 11.39100000 20.88350000 17.08650000
573 2 11.39100000 18.98500000 18.98500000
574 2 13.28950000 20.88350000 18.98500000
575 1 13.28950000 18.98500000 20.88350000
576 1 11.39100000 20.88350000 20.88350000
577 2 15.18800000 0.00000000 0.00000000
578 2 17.08650000 1.89850000 0.00000000
579 1 17.08650000 0.00000000 1.89850000
580 1 15.18800000 1.89850000 1.89850000
581 1 15.18800000 0.00000000 3.79700000
582 1 17.08650000 1.89850000 3.79700000
583 1 17.08650000 0.00000000 5.69550000
584 1 15.18800000 1.89850000 5.69550000
585 1 15.18800000 0.00000000 7.59400000
586 1 17.08650000 1.89850000 7.59400000
587 2 17.08650000 0.00000000 9.49250000
588 2 15.18800000 1.89850000 9.49250000
589 1 15.18800000 0.00000000 11.39100000
590 2 17.08650000 1.89850000 11.39100000
591 2 17.08650000 0.00000000 13.28950000
592 1 15.18800000 1.89850000 13.28950000
593 1 15.18800000 0.00000000 15.18800000
594 2 17.08650000 1.89850000 15.18800000
595 2 17.08650000 0.00000000 17.08650000
596 2 15.18800000 1.89850000 17.08650000
597 1 15.18800000 0.00000000 18.98500000
598 1 17.08650000 1.89850000 18.98500000
599 1 17.08650000 0.00000000 20.88350000
600 1 15.18800000 1.89850000 20.88350000
601 2 15.18800000 3.79700000 0.00000000
602 1 17.08650000 5.69550000 0.00000000
603 1 17.08650000 3.79700000 1.89850000
604 2 15.18800000 5.69550000 1.89850000
605 2 15.18800000 3.79700000 3.79700000
606 1 17.08650000 5.69550000 3.79700000
607 2 17.08650000 3.79700000 5.69550000
608 2 15.18800000 5.69550000 5.69550000
609 1 15.18800000 3.79700000 7.59400000
610 2 17.08650000 5.69550000 7.59400000
611 2 17.08650000 3.79700000 9.49250000
612 1 15.18800000 5.69550000 9.49250000
613 2 15.18800000 3.79700000 11.39100000
614 2 17.08650000 5.69550000 11.39100000
615 2 17.08650000 3.79700000 13.28950000
616 1 15.18800000 5.69550000 13.28950000
617 1 15.18800000 3.79700000 15.18800000
618 2 17.08650000 5.69550000 15.18800000
619 2 17.08650000 3.79700000 17.08650000
620 2 15.18800000 5.69550000 17.08650000
621 1 15.18800000 3.79700000 18.98500000
622 2 17.08650000 5.69550000 18.98500000
623 1 17.08650000 3.79700000 20.88350000
624 2 15.18800000 5.69550000 20.88350000
625 1 15.18800000 7.59400000 0.00000000
626 2 17.08650000 9.49250000 0.00000000
627 2 17.08650000 7.59400000 1.89850000
628 2 15.18800000 9.49250000 1.89850000
629 2 15.18800000 7.59400000 3.79700000
630 1 17.08650000 9.49250000 3.79700000
631 1 17.08650000 7.59400000 5.69550000
632 2 15.18800000 9.49250000 5.69550000
633 2 15.18800000 7.59400000 7.59400000
634 2 17.08650000 9.49250000 7.59400000
635 1 17.08650000 7.59400000 9.49250000
636 2 15.18800000 9.49250000 9.49250000
637 1 15.18800000 7.59400000 11.39100000
638 2 17.08650000 9.49250000 11.39100000
639 2 17.08650000 7.59400000 13.28950000
640 2 15.18800000 9.49250000 13.28950000
641 1 15.18800000 7.59400000 15.18800000
642 1 17.08650000 9.49250000 15.18800000
643 2 17.08650000 7.59400000 17.08650000
644 1 15.18800000 9.49250000 17.08650000
645 2 15.18800000 7.59400000 18.98500000
646 1 17.08650000 9.49250000 18.98500000
647 2 17.08650000 7.59400000 20.88350000
648 2 15.18800000 9.49250000 20.88350000
649 2 15.18800000 11.39100000 0.00000000
650 1 17.08650000 13.28950000 0.00000000
651 2 17.08650000 11.39100000 1.89850000
652 2 15.18800000 13.28950000 1.89850000
653 1 15.18800000 11.39100000 3.79700000
654 1 17.08650000 13.28950000 3.79700000
655 1 17.08650000 11.39100000 5.69550000
656 2 15.18800000 13.28950000 5.69550000
657 2 15.18800000 11.39100000 7.59400000
658 1 17.08650000 13.28950000 7.59400000
659 1 17.08650000 11.39100000 9.49250000
660 2 15.18800000 13.28950000 9.49250000
661 1 15.18800000 11.39100000 11.39100000
662 1 17.08650000 13.28950000 11.39100000
663 2 17.08650000 11.39100000 13.28950000
664 2 15.18800000 13.28950000 13.28950000
665 1 15.18800000 11.39100000 15.18800000
666 1 17.08650000 13.28950000 15.18800000
667 2 17.08650000 11.39100000 17.08650000
668 2 15.18800000 13.28950000 17.08650000
669 1 15.18800000 11.39100000 18.98500000
670 2 17.08650000 13.28950000 18.98500000
671 1 17.08650000 11.39100000 20.88350000
672 2 15.18800000 13.28950000 20.88350000
673 2 15.18800000 15.18800000 0.00000000
674 1 17.08650000 17.08650000 0.00000000
675 2 17.08650000 15.18800000 1.89850000
676 2 15.18800000 17.08650000 1.89850000
677 2 15.18800000 15.18800000 3.79700000
678 2 17.08650000 17.08650000 3.79700000
679 1 17.08650000 15.18800000 5.69550000
680 2 15.18800000 17.08650000 5.69550000
681 1 15.18800000 15.18800000 7.59400000
682 1 17.08650000 17.08650000 7.59400000
683 2 17.08650000 15.18800000 9.49250000
684 1 15.18800000 17.08650000 9.49250000
685 1 15.18800000 15.18800000 11.39100000
686 1 17.08650000 17.08650000 11.39100000
687 2 17.08650000 15.18800000 13.28950000
688 1 15.18800000 17.08650000 13.28950000
689 1 15.18800000 15.18800000 15.18800000
690 1 17.08650000 17.08650000 15.18800000
691 2 17.08650000 15.18800000 17.08650000
692 2 15.18800000 17.08650000 17.08650000
693 2 15.18800000 15.18800000 18.98500000
694 2 17.08650000 17.08650000 18.98500000
695 1 17.08650000 15.18800000 20.88350000
696 1 15.18800000 17.08650000 20.88350000
697 2 15.18800000 18.98500000 0.00000000
698 2 17.08650000 20.88350000 0.00000000
699 2 17.08650000 18.98500000 1.89850000
700 1 15.18800000 20.88350000 1.89850000
701 1 15.18800000 18.98500000 3.79700000
702 2 17.08650000 20.88350000 3.79700000
703 1 17.08650000 18.98500000 5.69550000
704 2 15.18800000 20.88350000 5.69550000
705 1 15.18800000 18.98500000 7.59400000
706 2 17.08650000 20.88350000 7.59400000
707 1 17.08650000 18.98500000 9.49250000
708 2 15.18800000 20.88350000 9.49250000
709 1 15.18800000 18.98500000 11.39100000
710 2 17.08650000 20.88350000 11.39100000
711 1 17.08650000 18.98500000 13.28950000
712 2 15.18800000 20.88350000 13.28950000
713 2 15.18800000 18.98500000 15.18800000
714 1 17.08650000 20.88350000 15.18800000
715 1 17.08650000 18.98500000 17.08650000
716 1 15.18800000 20.88350000 17.08650000
717 1 15.18800000 18.98500000 18.98500000
718 2 17.08650000 20.88350000 18.98500000
719 2 17.08650000 18.98500000 20.88350000
720 1 15.18800000 20.88350000 20.88350000
721 1 18.98500000 0.00000000 0.00000000
722 2 20.88350000 1.89850000 0.00000000
723 2 20.88350000 0.00000000 1.89850000
724 1 18.98500000 1.89850000 1.89850000
725 1 18.98500000 0.00000000 3.79700000
726 1 20.88350000 1.89850000 3.79700000
727 2 20.88350000 0.00000000 5.69550000
728 2 18.98500000 1.89850000 5.69550000
729 1 18.98500000 0.00000000 7.59400000
730 1 20.88350000 1.89850000 7.59400000
731 2 20.88350000 0.00000000 9.49250000
732 1 18.98500000 1.89850000 9.49250000
733 2 18.98500000 0.00000000 11.39100000
734 2 20.88350000 1.89850000 11.39100000
735 2 20.88350000 0.00000000 13.28950000
736 1 18.98500000 1.89850000 13.28950000
737 1 18.98500000 0.00000000 15.18800000